LAMMPS data file from make_silica_1500.py (replicated from silica.data)

1500 atoms
2 atom types

-3.1662119372314077 67.16001669117541 xlo xhi
2.439729779730601 18.145847931862118 ylo yhi
1.5469184683713184 19.038659243222867 zlo zhi

Atom Type Labels

1 Si
2 O

Masses

1 28.0855
2 15.9994

Atoms # full

1 22 2 -0.55 -3.128511935896597 17.925431026915884 4.609872805384594 0 0 0
2 9 2 -0.55 -3.0255404072546535 16.379366067551558 6.763012182887338 0 0 0
3 39 1 1.1 -3.0100212803905624 11.35910689720923 3.4746479997567015 0 0 0
4 36 1 1.1 -2.9494678799531875 13.577008599003925 11.884315967470716 0 0 0
5 44 2 -0.55 -2.9479401608134532 5.831293308874429 13.725389869441443 0 0 0
6 22 2 -0.55 -2.946539727622391 12.157439266309094 8.017033530705294 0 0 0
7 45 2 -0.55 -2.896131891728828 7.39999948957726 4.818273870902976 0 0 0
8 12 1 1.1 -2.86031372517059 5.392436899588226 12.1547607251106 0 0 0
9 53 2 -0.55 -2.8477093973366343 2.581975707006219 17.36869440197649 0 0 0
10 10 2 -0.55 -2.8305533563247707 15.173323677876258 4.45254489078432 0 0 0
11 21 2 -0.55 -2.76169436847665 6.543643996879697 18.979099244782805 0 0 0
12 64 2 -0.55 -2.686377206920297 16.230809644981516 18.983453304020475 0 0 0
13 13 2 -0.55 -2.5524306665066483 16.680579973798903 9.313591902426136 0 0 0
14 60 2 -0.55 -2.551059912382037 4.741269174476735 4.009810613713323 0 0 0
15 18 2 -0.55 -2.5310434738738947 13.704568605813968 15.883873562682153 0 0 0
16 45 1 1.1 -2.478272249625326 13.071996618375625 17.37025815885099 0 0 0
17 25 2 -0.55 -2.3098262100990468 10.70300218484078 2.220341296370484 0 0 0
18 49 1 1.1 -2.2597488565877124 16.32045505185284 10.880533487562504 0 0 0
19 14 2 -0.55 -2.22609279448179 5.378246150433366 6.317939674106554 0 0 0
20 5 2 -0.55 -2.2187006259194164 8.931626187024673 15.305752700791839 0 0 0
21 25 2 -0.55 -2.1890447625403504 12.631980042504146 3.9840588000503856 0 0 0
22 13 2 -0.55 -2.158029365469646 11.421294576182955 17.28743830573913 0 0 0
23 3 2 -0.55 -2.152475487128652 14.712640525020213 11.083252245585266 0 0 0
24 41 1 1.1 -2.122733434816456 10.095755983318298 18.254615022770693 0 0 0
25 36 2 -0.55 -2.105944695799101 4.0126096393286925 11.915448103720005 0 0 0
26 33 1 1.1 -2.0971722471653127 6.031660887375862 4.901533759468036 0 0 0
27 37 2 -0.55 -2.092688859025774 6.627336068113623 11.48362981293426 0 0 0
28 52 2 -0.55 -2.0276268981151437 12.302044766971878 11.966961938068465 0 0 0
29 55 1 1.1 -2.0227396212327737 5.488942485012874 7.906560201008717 0 0 0
30 51 2 -0.55 -2.01384550644397 2.803965389551025 14.902075429094513 0 0 0
31 16 2 -0.55 -1.943728433561208 13.674453516451404 6.400474092666468 0 0 0
32 24 1 1.1 -1.889561104955778 8.272113636912435 8.912263355808912 0 0 0
33 4 1 1.1 -1.877009023174019 13.976439057342358 4.842637169736155 0 0 0
34 34 2 -0.55 -1.7607431454347275 9.3524048832808 7.71013496934505 0 0 0
35 1 1 1.1 -1.525156751512007 12.695729040844043 7.593409229494434 0 0 0
36 57 2 -0.55 -1.4573010903711234 13.929902637858312 18.375708523931863 0 0 0
37 47 2 -0.55 -1.3852498863707026 6.889610854417293 8.25875935886775 0 0 0
38 59 1 1.1 -1.3076064817804183 6.098908213692493 18.500591910099395 0 0 0
39 32 2 -0.55 -1.2695071809977831 8.76452640530816 12.883364831037431 0 0 0
40 55 1 1.1 -1.26756767042246 15.520029528463425 18.661190127988874 0 0 0
41 32 2 -0.55 -1.2030867008829824 6.3667034380102105 16.93496611687987 0 0 0
42 38 2 -0.55 -1.1348417807709579 17.302835030337725 11.407470698489005 0 0 0
43 45 2 -0.55 -1.125785398001565 4.306886519967662 8.515780806188948 0 0 0
44 44 2 -0.55 -1.0924061938636962 8.645668419890736 10.28202771788595 0 0 0
45 61 2 -0.55 -0.9966933793031352 15.682607241263046 13.981178086480716 0 0 0
46 12 1 1.1 -0.9244283882443196 7.8029092212770905 11.624638650147086 0 0 0
47 64 1 1.1 -0.9057662264422905 8.549217818257121 14.438495371722901 0 0 0
48 42 2 -0.55 -0.8635919854162051 4.585962266584966 18.837474146126183 0 0 0
49 28 2 -0.55 -0.7685422964635786 13.361080843307914 8.853554445816489 0 0 0
50 30 1 1.1 -0.7389586540407826 3.1281012207884817 11.715589493865169 0 0 0
51 11 2 -0.55 -0.7276551391470787 9.33802335600843 18.21147997847529 0 0 0
52 17 2 -0.55 -0.6522072863442583 16.047508787692422 17.251288974211384 0 0 0
53 35 2 -0.55 -0.6050109142083651 6.503084015662502 4.567561101658834 0 0 0
54 30 2 -0.55 -0.5248207834656529 7.001652086245669 14.637517704306784 0 0 0
55 43 2 -0.55 -0.5231242300925922 11.610523192194492 6.992164488301732 0 0 0
56 8 1 1.1 -0.5220372081445523 12.13486871692595 12.522747325151457 0 0 0
57 61 2 -0.55 -0.4202108519348644 11.5848881450686 14.025061048186503 0 0 0
58 43 1 1.1 -0.3926765916515218 9.995563945170773 7.128559058190554 0 0 0
59 32 1 1.1 -0.35308531541611154 3.0533188598349623 14.693272040510323 0 0 0
60 64 2 -0.55 -0.3378468053498507 14.390293761831487 4.513117342103677 0 0 0
61 26 2 -0.55 -0.3245724666026204 9.52347899707538 5.5705530129129786 0 0 0
62 7 2 -0.55 -0.17488744564034953 3.0443669307209333 3.2302936541932503 0 0 0
63 11 2 -0.55 -0.1581038140641553 15.693401013330249 2.3292540006583353 0 0 0
64 10 1 1.1 -0.12934410772620497 6.070151418045308 15.788903918837788 0 0 0
65 48 2 -0.55 -0.09846426857190238 6.928993807461638 1.6935112093564744 0 0 0
66 32 2 -0.55 -0.08540896369236783 4.552343056385368 15.374248845042748 0 0 0
67 36 2 -0.55 -0.043074347167870286 3.2722839976760154 13.163015070080684 0 0 0
68 21 2 -0.55 0.014416294139977026 17.498857275397814 5.7597956305503235 0 0 0
69 12 2 -0.55 0.11127183509985494 13.642744299027036 12.63783761145151 0 0 0
70 24 2 -0.55 0.201579316649092 17.84532127399316 8.319706016055878 0 0 0
71 58 2 -0.55 0.22814201961558123 3.6787725877099007 10.55522806407298 0 0 0
72 6 1 1.1 0.25376780994448733 3.6195946313843663 8.922700827777586 0 0 0
73 34 1 1.1 0.3141203880399588 3.5691558850317753 1.7801646102993034 0 0 0
74 42 2 -0.55 0.31867404010366807 8.979898784426048 3.084452600344924 0 0 0
75 23 1 1.1 0.3251307683429765 8.493333264089896 1.569274353144957 0 0 0
76 31 2 -0.55 0.3367486482858095 15.308523656044706 7.592811265695696 0 0 0
77 41 2 -0.55 0.3370068880425716 9.38098320660503 14.934688469699376 0 0 0
78 44 1 1.1 0.3782906745533574 14.943850871940885 13.588155218321528 0 0 0
79 64 2 -0.55 0.41989864305344105 11.2757666186426 11.57493131541549 0 0 0
80 23 2 -0.55 0.4574511041026299 2.444736575301215 18.073085176522554 0 0 0
81 10 2 -0.55 0.4685801497964026 17.69483915357714 15.461855786219221 0 0 0
82 22 2 -0.55 0.4904750846237449 7.172283052741169 11.802027318136238 0 0 0
83 52 1 1.1 0.5346318223312139 17.044823726124 16.909384426104303 0 0 0
84 40 1 1.1 0.5470765932839234 2.9971762390193866 4.672530846186493 0 0 0
85 34 1 1.1 0.5577804563372166 16.84567752348699 7.140842353038934 0 0 0
86 22 1 1.1 0.5727955890192384 14.225434445214276 8.81086862586908 0 0 0
87 41 2 -0.55 0.6078671921624648 4.415955904400246 5.387153672183867 0 0 0
88 14 1 1.1 0.7476350034475794 9.739448830177142 4.417024698797762 0 0 0
89 35 1 1.1 0.7621421169520683 14.933944813952351 3.4419171101978794 0 0 0
90 30 1 1.1 0.7688534496031298 10.942526970976797 14.852825485915501 0 0 0
91 16 2 -0.55 0.8144298711151108 11.302125717675743 3.926816386079838 0 0 0
92 41 2 -0.55 0.8190087478669401 9.542490834112218 8.106621058457161 0 0 0
93 54 2 -0.55 0.8190660602014899 15.046699470152301 10.144393408162443 0 0 0
94 9 1 1.1 0.824408058751144 5.937733627146608 4.904608118516039 0 0 0
95 39 2 -0.55 0.8978303311641715 11.39318189305126 16.38567143534265 0 0 0
96 48 2 -0.55 1.1659587812242211 14.483478745104414 14.969621446770873 0 0 0
97 51 2 -0.55 1.2834202415461906 15.892574073125719 12.59522573623738 0 0 0
98 39 2 -0.55 1.3324229332574875 13.608220239483131 2.7781274389301718 0 0 0
99 11 2 -0.55 1.4111145860027738 6.209357668721507 16.242196697877077 0 0 0
100 25 2 -0.55 1.4711813856287463 4.4019561934734694 8.244683339288478 0 0 0
101 20 2 -0.55 1.480576712414008 6.885928098652363 6.004461325896905 0 0 0
102 56 2 -0.55 1.7024086230896653 11.46903740310114 18.922040052505032 0 0 0
103 17 2 -0.55 1.768877595509105 8.542241404735968 18.336082870348406 0 0 0
104 45 2 -0.55 1.7743927538705107 7.61259214601557 9.662959435096518 0 0 0
105 18 1 1.1 1.7867319184470993 12.043808041295737 2.922455482352278 0 0 0
106 44 2 -0.55 1.8168459006423863 16.20895836210751 16.961527579631735 0 0 0
107 44 2 -0.55 1.8183336616445427 13.215452816103468 8.539023570657532 0 0 0
108 15 2 -0.55 1.8269171946699831 13.615228162185588 17.385660868973183 0 0 0
109 14 2 -0.55 1.8289583820964896 4.220428571982396 1.8446944401908585 0 0 0
110 46 1 1.1 1.8575174445190674 15.789360440929617 11.103418337926872 0 0 0
111 40 2 -0.55 1.8943895888871571 5.878535734327599 3.7467801382215833 0 0 0
112 6 2 -0.55 1.9307978027071746 15.787654899740026 4.064095349871049 0 0 0
113 3 1 1.1 1.9490092548143787 12.059699518922738 17.457354962824553 0 0 0
114 39 1 1.1 1.9769372241420724 7.322723131310232 11.282516901315681 0 0 0
115 28 2 -0.55 2.0392613264727473 2.612364067288027 4.359967224738909 0 0 0
116 16 1 1.1 2.081644828296076 14.768300220935505 16.233694473620993 0 0 0
117 48 2 -0.55 2.1013966720722674 11.251725587534668 14.066048452607859 0 0 0
118 53 2 -0.55 2.1565693037211426 9.191112625382093 4.965137214773389 0 0 0
119 5 1 1.1 2.160156847398614 8.875960665834493 8.738267236607058 0 0 0
120 62 2 -0.55 2.2012780362951396 16.8315112831 6.935042955071329 0 0 0
121 17 2 -0.55 2.248335669045641 17.24040973775972 10.510208287590887 0 0 0
122 17 2 -0.55 2.4294488121488023 5.319250224606295 13.991098931229905 0 0 0
123 45 1 1.1 2.6674536039816497 5.438309219129142 15.615276381868453 0 0 0
124 53 1 1.1 2.7007094726507423 7.960015325753945 5.956215745611607 0 0 0
125 63 2 -0.55 2.7811702185305442 8.584200479436031 11.889371555028104 0 0 0
126 46 1 1.1 2.836875224314376 5.261134761728659 2.591492909140472 0 0 0
127 26 2 -0.55 2.855361271050014 5.997360704045558 11.51470080320508 0 0 0
128 24 1 1.1 2.888911803353553 17.03102975955334 3.9433929426480034 0 0 0
129 24 2 -0.55 2.9786797949330204 12.886604409283628 6.148154777670711 0 0 0
130 35 2 -0.55 3.035820253829553 8.488573042833423 7.408792233011831 0 0 0
131 19 2 -0.55 3.055862364943536 9.795437709384291 9.610523357625762 0 0 0
132 46 2 -0.55 3.0602476266838785 4.045861877514936 16.37043149188784 0 0 0
133 52 2 -0.55 3.0925076012563837 3.530070955886165 12.185997960338648 0 0 0
134 23 1 1.1 3.0950359950925783 4.16025014607208 8.161329828828766 0 0 0
135 50 1 1.1 3.16192654939781 13.124230912067315 7.727283375784036 0 0 0
136 8 2 -0.55 3.2087679359601395 11.932785367604506 3.596957310292068 0 0 0
137 16 2 -0.55 3.267839060429817 14.987861432052426 11.251982651985585 0 0 0
138 17 1 1.1 3.287768450301913 8.105001305299929 18.749534875068044 0 0 0
139 6 2 -0.55 3.3074485961897606 6.531187175246455 1.6259117932661733 0 0 0
140 58 1 1.1 3.332436369774017 5.031054614524182 12.720298642479603 0 0 0
141 57 2 -0.55 3.363960403658722 13.45433744207729 13.229787798532609 0 0 0
142 37 2 -0.55 3.3648399742080572 11.714071671317896 16.74898719587766 0 0 0
143 35 1 1.1 3.384459896371654 2.605235353775917 10.935727603342599 0 0 0
144 49 1 1.1 3.4061185996763284 11.842631753213212 13.272212835256953 0 0 0
145 1 2 -0.55 3.4111133370619235 11.1621527201766 11.8297761924555 0 0 0
146 5 2 -0.55 3.4969421915347496 3.4746512083797336 9.55587130754436 0 0 0
147 54 2 -0.55 3.5387980466355247 3.3286528513489384 6.857502131724499 0 0 0
148 50 2 -0.55 3.542730919701601 17.175495734640894 2.5196908055880973 0 0 0
149 51 2 -0.55 3.5869915602040665 14.923969559986737 15.769766775110345 0 0 0
150 46 1 1.1 3.614246808575139 9.74522528939153 11.123649856924951 0 0 0
151 59 1 1.1 3.6681021534306826 17.379281394816932 6.634792031232161 0 0 0
152 53 2 -0.55 3.8293910895124705 5.6084483218215 7.966335065744822 0 0 0
153 36 2 -0.55 3.902999776399737 9.00590953550881 2.4433178633524517 0 0 0
154 19 2 -0.55 3.919437407895317 14.546345128219343 7.923348433610029 0 0 0
155 46 2 -0.55 3.9227633721694017 7.218534501368891 5.305512651885612 0 0 0
156 57 2 -0.55 3.9672277663131332 6.36661583354852 15.738805140807566 0 0 0
157 12 2 -0.55 3.971209467799059 16.951285829973838 5.139365991565526 0 0 0
158 57 1 1.1 3.9953684742530937 12.25918416974504 4.986803470550827 0 0 0
159 5 2 -0.55 3.9983758112389722 17.538932980346473 15.418271248679076 0 0 0
160 27 2 -0.55 4.147344940934557 4.521547607811177 3.1414218531293807 0 0 0
161 41 1 1.1 4.233093537833164 14.569959547603478 12.46162154404671 0 0 0
162 51 2 -0.55 4.24505352758329 8.306805839540958 17.45046171706204 0 0 0
163 2 2 -0.55 4.306092263765346 12.038389896795135 8.103114680947488 0 0 0
164 33 1 1.1 4.358775619904313 3.0303621252049866 16.441603732317347 0 0 0
165 15 2 -0.55 4.464395099631569 8.947443225258086 14.852147277847784 0 0 0
166 25 1 1.1 4.471053493639447 16.012010260673176 15.010724326465182 0 0 0
167 10 2 -0.55 4.532903622739235 15.76013946143203 13.46874298559146 0 0 0
168 23 2 -0.55 4.584526003197128 15.410316291472032 18.432574797477088 0 0 0
169 41 2 -0.55 4.592404647341587 16.956035441429854 7.884554336209911 0 0 0
170 18 1 1.1 4.691684823632627 16.90489942016513 18.993114513610138 0 0 0
171 44 1 1.1 4.697227918529003 7.780232204030925 15.929231239224395 0 0 0
172 29 2 -0.55 4.733584750518018 11.326686060726484 13.930782123730861 0 0 0
173 23 2 -0.55 4.779409766708984 17.535264485508236 11.30524343302837 0 0 0
174 37 2 -0.55 4.821182057346905 18.003806570731452 17.789661383502676 0 0 0
175 49 2 -0.55 4.824099640642853 10.957829951240065 5.555979438355981 0 0 0
176 34 2 -0.55 4.842284064712947 11.042585343395245 18.624984853855445 0 0 0
177 15 1 1.1 4.917776190011274 11.677527873187092 17.15995752638012 0 0 0
178 16 2 -0.55 4.922488562827027 5.367307746546853 12.998302730661177 0 0 0
179 46 2 -0.55 5.020108074471787 13.459598321331562 4.794052661058926 0 0 0
180 31 2 -0.55 5.134625811245542 7.222731666809336 9.464090269578927 0 0 0
181 26 1 1.1 5.158875303382496 15.503588379478405 8.300170766813862 0 0 0
182 54 2 -0.55 5.165383696088696 9.293362712644262 10.958967633971932 0 0 0
183 26 1 1.1 5.2462177629178 9.870457334211942 2.146232107386302 0 0 0
184 27 1 1.1 5.320823888320545 6.22996115466379 8.232414918314127 0 0 0
185 47 1 1.1 5.473706335057029 10.141289230673342 14.68785581021729 0 0 0
186 13 2 -0.55 5.533626155851035 13.81900152156786 12.016576987202274 0 0 0
187 56 1 1.1 5.544489833546718 7.139853647552125 5.356930339647466 0 0 0
188 25 2 -0.55 5.683165267517774 13.148671846827373 17.31566885417227 0 0 0
189 20 1 1.1 5.710781512013808 4.650025292806207 3.5521838082178983 0 0 0
190 23 2 -0.55 5.73072785699971 3.7534650814843316 15.937062504623325 0 0 0
191 37 1 1.1 5.743338259583213 14.320103315252233 18.409578638795494 0 0 0
192 41 2 -0.55 5.76203706934346 10.71732005275257 16.168392581566305 0 0 0
193 8 2 -0.55 5.772764320475103 15.64231538361459 9.776664824731064 0 0 0
194 8 1 1.1 5.8715166779661985 11.856386085823516 8.320879019765336 0 0 0
195 62 2 -0.55 5.873556472160113 6.8911154785051965 6.885828314301324 0 0 0
196 15 2 -0.55 5.9029774759694025 15.851773727798257 15.772805131208202 0 0 0
197 50 2 -0.55 5.995551137339399 13.81177408697448 2.477197934633239 0 0 0
198 49 2 -0.55 5.998454866891894 10.564077480628097 3.4555669429610543 0 0 0
199 29 2 -0.55 6.055594380763177 6.081280615568513 4.3050751901358595 0 0 0
200 7 1 1.1 6.099685413290507 17.04441875252492 10.514053003310163 0 0 0
201 63 1 1.1 6.100765501055925 7.994758991659802 10.487149720913484 0 0 0
202 20 2 -0.55 6.148427354912124 8.629260328300187 5.1415310756779835 0 0 0
203 56 2 -0.55 6.1489655139906905 16.87080045587384 2.2558143985302435 0 0 0
204 3 2 -0.55 6.171244038780152 12.492031295640412 9.838941013953244 0 0 0
205 19 1 1.1 6.224980978286769 10.170638887404866 5.033206226723371 0 0 0
206 55 2 -0.55 6.26360790140418 3.5116200668119077 4.585763091623063 0 0 0
207 38 1 1.1 6.268201071134195 13.984644174481822 4.033858445745016 0 0 0
208 10 2 -0.55 6.295004928137924 4.588127665213227 11.078876866334666 0 0 0
209 28 2 -0.55 6.299651431330151 7.619495114344185 15.826437523651759 0 0 0
210 47 2 -0.55 6.326707874283599 4.992237160110944 8.55929493511789 0 0 0
211 59 2 -0.55 6.3317309175932515 8.841891798060814 1.576164143737273 0 0 0
212 20 2 -0.55 6.350523389099278 15.189322164401602 7.2880205462764245 0 0 0
213 36 1 1.1 6.380402472656783 5.653236085368414 12.310043793043675 0 0 0
214 58 2 -0.55 6.450558996485286 10.335739101217275 8.187366600210467 0 0 0
215 41 2 -0.55 6.45482444045061 7.107069314307042 11.709409132687142 0 0 0
216 3 2 -0.55 6.487388934104288 2.464346666172637 9.416779091538451 0 0 0
217 42 2 -0.55 6.573763998542367 4.63788917793722 2.210848515659004 0 0 0
218 46 2 -0.55 6.648356632072989 15.463859571691618 4.680160062292156 0 0 0
219 61 1 1.1 6.703540685802535 12.933577521880263 11.324843801203517 0 0 0
220 46 2 -0.55 6.818211998315203 12.590007103492901 7.259340246721634 0 0 0
221 5 2 -0.55 6.840443171121699 9.853155930265283 13.996868236145609 0 0 0
222 62 1 1.1 6.896104359253998 3.9958007024810502 9.655743940984257 0 0 0
223 14 2 -0.55 6.9866889275658846 2.4678850462278525 14.001657065478213 0 0 0
224 38 2 -0.55 7.0288129305918154 11.570992384114653 12.095829989740542 0 0 0
225 28 2 -0.55 7.0889888502968414 15.324343938378117 18.041803192371127 0 0 0
226 4 1 1.1 7.112206140450729 3.107228213589995 15.468485048736646 0 0 0
227 47 2 -0.55 7.148224164450012 17.45726115384982 6.310034066106257 0 0 0
228 38 1 1.1 7.177865306894592 15.860465739726887 6.113225601831286 0 0 0
229 40 2 -0.55 7.19652145254544 5.973878925228815 17.521485241179157 0 0 0
230 63 1 1.1 7.244331507848365 16.058412638104105 16.583471819194045 0 0 0
231 40 2 -0.55 7.3182830041636375 17.087506777738625 11.521567163121665 0 0 0
232 47 2 -0.55 7.364941000005135 8.382424769909441 9.588846867374551 0 0 0
233 38 2 -0.55 7.458403758050283 13.128796769603351 4.6457917319518724 0 0 0
234 9 1 1.1 7.568619944678144 16.123100162804278 1.9762827991997705 0 0 0
235 26 1 1.1 7.581973088980861 2.9882129798107027 5.432132710863657 0 0 0
236 63 2 -0.55 7.597862429808746 17.683212722398345 16.62219146102424 0 0 0
237 59 2 -0.55 7.613444204607195 10.814367113939152 5.583448046360095 0 0 0
238 50 2 -0.55 7.6275825361358045 5.354701049887465 13.302883589518043 0 0 0
239 21 1 1.1 7.630983160596424 7.192520219983191 16.52808108976345 0 0 0
240 3 1 1.1 7.731019603835865 5.202145058883858 18.821197888709413 0 0 0
241 29 1 1.1 7.7844846875972955 9.305425776850745 18.67025523307386 0 0 0
242 13 1 1.1 7.826463929627174 9.600634075186003 8.631340526097233 0 0 0
243 54 1 1.1 7.844839173659567 10.445786407872458 12.93164348267705 0 0 0
244 51 1 1.1 7.862432752924219 12.377283652489599 6.027605432857026 0 0 0
245 54 1 1.1 7.880635518151761 17.3993519845236 12.960851625258082 0 0 0
246 22 2 -0.55 7.892472441127731 10.83311293926348 18.214763295693174 0 0 0
247 42 2 -0.55 8.015057486521068 13.80272119010803 11.244038120541441 0 0 0
248 64 2 -0.55 8.033968847624141 15.90805366714055 13.627304602380415 0 0 0
249 15 2 -0.55 8.20620103460343 4.264246878011206 6.220471838391226 0 0 0
250 27 2 -0.55 8.242096190598598 8.380538804832582 17.406234341118914 0 0 0
251 24 2 -0.55 8.343556836165902 4.110882433465699 15.35308231120705 0 0 0
252 3 2 -0.55 8.354307535436082 9.247101735922957 11.976004005776621 0 0 0
253 60 2 -0.55 8.396139920342428 14.921739303225653 2.633197491808133 0 0 0
254 62 2 -0.55 8.486745521965537 4.004863766805034 9.919332005247187 0 0 0
255 33 2 -0.55 8.511937162751448 15.376738071823464 16.001084562774363 0 0 0
256 4 2 -0.55 8.543377687676557 9.196922590206482 2.591642725263607 0 0 0
257 30 2 -0.55 8.552042376492105 6.677413287492256 15.328384514229668 0 0 0
258 49 2 -0.55 8.598316357390534 17.18739312511702 18.89124916772292 0 0 0
259 61 2 -0.55 8.63757754738516 3.960822222160126 18.25914643609822 0 0 0
260 28 2 -0.55 8.6614661204107 15.239612241954553 6.374815483672445 0 0 0
261 31 2 -0.55 8.665311976965956 10.649446371749391 9.54302344954579 0 0 0
262 45 1 1.1 8.737255563105926 5.341821907000956 14.446955655071223 0 0 0
263 52 2 -0.55 8.754806315528318 6.153588691131143 2.145242767834783 0 0 0
264 21 2 -0.55 8.764506438021426 2.522308161223297 4.454090746403206 0 0 0
265 39 1 1.1 8.819368370469316 2.4834680665891886 17.691304334004926 0 0 0
266 56 2 -0.55 8.923139420955088 9.06018537985749 7.484333179578493 0 0 0
267 58 2 -0.55 9.026151857527312 11.919738008664979 16.00481485047673 0 0 0
268 3 2 -0.55 9.049383135282913 11.195133740542325 13.616262386649113 0 0 0
269 29 1 1.1 9.086993614474387 11.609315935342476 17.586844709855185 0 0 0
270 49 1 1.1 9.104758609099687 15.211727340029192 14.54541005091465 0 0 0
271 12 2 -0.55 9.128476331619 6.555684370485748 7.09503516568853 0 0 0
272 4 2 -0.55 9.13592250854764 14.21558256272461 8.86207178988645 0 0 0
273 11 2 -0.55 9.188432126443479 13.05235133243874 18.281770146963943 0 0 0
274 48 2 -0.55 9.281356306692325 12.878375613191707 6.6025435030952675 0 0 0
275 21 2 -0.55 9.284147690457885 13.721042822378642 14.102891561795612 0 0 0
276 35 2 -0.55 9.329883878106049 8.089257844572984 4.9700087967523 0 0 0
277 13 2 -0.55 9.374941053428934 17.958837085671377 12.96404153575664 0 0 0
278 47 1 1.1 9.399954516711958 13.96301237033284 10.456000303660954 0 0 0
279 31 1 1.1 9.469536562569855 5.072169410642497 6.796783879371692 0 0 0
280 52 1 1.1 9.565052763290065 13.910870134204533 2.1126316065886424 0 0 0
281 2 1 1.1 9.641706011459217 14.269875480810377 7.3052840198491875 0 0 0
282 7 1 1.1 9.686236816030924 7.978702314181811 6.607061277650813 0 0 0
283 29 1 1.1 9.699164582903727 12.245718931146435 14.605081279422961 0 0 0
284 33 1 1.1 9.71500945378174 8.937806190244597 3.677908616399233 0 0 0
285 28 1 1.1 9.825897392336639 8.73196002525503 11.789353186908755 0 0 0
286 1 2 -0.55 9.978888193920056 7.328037729703676 11.061127108991283 0 0 0
287 43 1 1.1 10.056480605126483 3.8235651120214147 9.585447794762493 0 0 0
288 2 2 -0.55 10.058699156900833 4.27435833890858 8.032969700525278 0 0 0
289 55 2 -0.55 10.110924301277375 12.92638936216333 3.266402691326546 0 0 0
290 56 1 1.1 10.13946596194649 11.126862502404226 9.964542026436702 0 0 0
291 39 2 -0.55 10.174368161208927 12.571619513058042 10.648197388539652 0 0 0
292 50 2 -0.55 10.236672599795153 17.994235626670186 17.025569494957388 0 0 0
293 1 2 -0.55 10.245088026370775 5.046695566994748 13.900164865237931 0 0 0
294 42 2 -0.55 10.25753356163318 15.068684817200069 11.211455054162125 0 0 0
295 56 1 1.1 10.277995335814948 6.64913064023281 1.869540896113388 0 0 0
296 53 1 1.1 10.311709637923652 17.71164440223533 4.566418136804465 0 0 0
297 20 2 -0.55 10.351461829032328 8.570770995855444 13.378548998736804 0 0 0
298 8 2 -0.55 10.365722337655791 10.706171574510535 17.97760810346537 0 0 0
299 29 2 -0.55 10.393653801183723 16.176788768347595 14.414004337051033 0 0 0
300 53 2 -0.55 10.542464638440933 10.343957106381893 4.146846673271966 0 0 0
301 54 2 -0.55 10.548664583079802 6.992558003377259 17.810678951168796 0 0 0
302 50 2 -0.55 10.603051008407206 7.917145768945743 2.826310117960361 0 0 0
303 10 2 -0.55 10.605675684911795 9.921343154034595 11.02506470740794 0 0 0
304 1 2 -0.55 10.608362864836673 5.189872580834997 5.648203819123477 0 0 0
305 45 2 -0.55 10.619568889642496 16.405746495102434 3.690624168092906 0 0 0
306 51 2 -0.55 10.635424796780269 17.291471552990362 6.12209408853492 0 0 0
307 24 2 -0.55 10.716060901220926 18.058283390051592 9.559360405594589 0 0 0
308 54 2 -0.55 10.738672312701285 14.90899222063678 1.6507593450033697 0 0 0
309 56 2 -0.55 10.815401005662041 4.861949775097486 10.53877873535383 0 0 0
310 20 1 1.1 10.8347624626489 17.453850084176903 13.54340040943224 0 0 0
311 59 2 -0.55 11.019358969077421 11.079639816948653 8.639011070821574 0 0 0
312 19 2 -0.55 11.119521249905276 14.930198086541928 7.354420427581744 0 0 0
313 37 1 1.1 11.218270478565618 11.757326370914004 3.6861822434724765 0 0 0
314 43 2 -0.55 11.227893223586573 8.099195697476851 6.873733168968896 0 0 0
315 19 1 1.1 11.246286548667062 6.418992955660398 10.622803311619407 0 0 0
316 17 2 -0.55 11.255075603153939 4.986151889144256 16.23985401551932 0 0 0
317 32 2 -0.55 11.297866053887802 12.261787973267275 14.817436796754548 0 0 0
318 36 2 -0.55 11.319537941987459 3.1915408494956243 4.216975347253939 0 0 0
319 32 2 -0.55 11.326827449667434 5.427118538586998 2.1198569752073633 0 0 0
320 23 1 1.1 11.451929644880533 16.12516192779465 2.35255690997475 0 0 0
321 33 2 -0.55 11.466087631388824 7.303641653389865 15.348405322587055 0 0 0
322 53 1 1.1 11.528545648831969 4.433566577240422 14.725598847875963 0 0 0
323 58 2 -0.55 11.558931884845286 2.901443009314337 14.38372157871312 0 0 0
324 10 1 1.1 11.56862383843933 8.514132302820187 14.404357304009153 0 0 0
325 4 2 -0.55 11.57727744525703 17.471691519916604 18.945578312364432 0 0 0
326 2 2 -0.55 11.596474042166298 9.805281318386239 15.49298619741386 0 0 0
327 28 1 1.1 11.602873772895986 6.471484011882539 16.705914591418612 0 0 0
328 13 2 -0.55 11.685412350198332 6.848167058541414 9.096541557413001 0 0 0
329 56 2 -0.55 11.766419460545753 16.96323625918752 12.319217948401903 0 0 0
330 15 1 1.1 11.776258653301642 15.575882999848634 11.493299416362218 0 0 0
331 50 1 1.1 11.776984096873006 17.7032228600659 17.419624424342526 0 0 0
332 2 1 1.1 11.81367546942736 16.32264956484088 6.745309570577015 0 0 0
333 42 1 1.1 11.920244644877783 4.418550383306055 5.0930074970317545 0 0 0
334 34 1 1.1 11.943758705937027 10.733084316805868 18.35782485361115 0 0 0
335 49 2 -0.55 12.1168464883258 11.339358634333305 2.3184627997458396 0 0 0
336 43 2 -0.55 12.185517299837695 12.376538115829963 4.808874460820694 0 0 0
337 42 1 1.1 12.253591187019193 17.47249071632161 9.347842165272688 0 0 0
338 3 1 1.1 12.312088031605771 11.251600391846335 15.541397539515826 0 0 0
339 15 2 -0.55 12.340830238157313 16.33225577341797 16.752330380469104 0 0 0
340 53 2 -0.55 12.402686339457496 16.033596514243555 10.077589576943016 0 0 0
341 11 1 1.1 12.403122488598477 7.74224491064277 7.9290495386554 0 0 0
342 29 2 -0.55 12.470698574354902 6.69304579328137 11.632753653048306 0 0 0
343 7 2 -0.55 12.534041654088984 17.236971893402707 7.8426584854213335 0 0 0
344 56 2 -0.55 12.562078300479982 11.752799978999722 17.17834369317493 0 0 0
345 61 2 -0.55 12.599952004256734 9.290617038900807 18.258970464207586 0 0 0
346 48 1 1.1 12.635183421803589 10.719559966529303 8.570471564019066 0 0 0
347 16 2 -0.55 12.660558023670825 14.492799348570045 12.28726367804121 0 0 0
348 18 2 -0.55 12.824013519055159 5.451464106245051 4.196875870727746 0 0 0
349 8 2 -0.55 12.859594200294017 15.790933194047621 5.626534909524549 0 0 0
350 64 1 1.1 12.86707958039006 5.6097148910485535 2.6422077242827844 0 0 0
351 19 2 -0.55 12.873228621651142 3.9046031564847006 6.23514954066135 0 0 0
352 48 2 -0.55 12.892735561138322 3.1195235807466677 17.153673834034404 0 0 0
353 5 2 -0.55 12.894318513714142 9.108436143039285 8.622000808567947 0 0 0
354 25 2 -0.55 12.901931189522076 8.44504612084206 13.528008245727271 0 0 0
355 9 2 -0.55 12.928782739115531 15.553307710138917 2.5939809772814377 0 0 0
356 62 2 -0.55 12.955197736935306 5.06594645697646 14.410363891265211 0 0 0
357 53 2 -0.55 13.138430946115013 6.909968182576999 17.272293377968758 0 0 0
358 34 2 -0.55 13.18014379126821 11.200924631054217 7.152989519732996 0 0 0
359 47 2 -0.55 13.288435510625588 2.811454883574403 9.99217830730898 0 0 0
360 5 2 -0.55 13.328852277128588 7.098703287598068 2.28156204190706 0 0 0
361 12 2 -0.55 13.397420642879103 11.56725307657236 9.698212146058331 0 0 0
362 60 1 1.1 13.421692695269554 12.135998049998065 5.821770378760341 0 0 0
363 6 1 1.1 13.545125374946354 7.957992302151016 18.463746055442016 0 0 0
364 25 2 -0.55 13.558155651611584 15.660329701792502 14.409530171861185 0 0 0
365 60 2 -0.55 13.583506167062586 14.116381051638381 16.589148754494524 0 0 0
366 19 2 -0.55 13.588098539446337 6.899053422241191 7.324853841853045 0 0 0
367 21 1 1.1 13.602410908673667 7.5745171710826495 12.38612600009866 0 0 0
368 55 2 -0.55 13.631354478435773 4.513164935809698 1.793743698946184 0 0 0
369 25 1 1.1 13.645302276835851 15.585901186769402 16.00388719230009 0 0 0
370 6 2 -0.55 13.666533820454122 11.047340950664267 14.733816559602444 0 0 0
371 41 1 1.1 13.739722386522791 12.803035809225285 17.533657993030182 0 0 0
372 1 2 -0.55 13.787479809982054 13.252102475542682 1.5961556413970819 0 0 0
373 34 2 -0.55 13.880110436339889 13.558749424998275 6.363813965732358 0 0 0
374 25 1 1.1 13.946960102721542 14.67773820084465 13.175851618599442 0 0 0
375 6 2 -0.55 13.969309518872164 3.945088551513225 12.375719331690785 0 0 0
376 17 1 1.1 14.114734859326846 3.556595240073918 18.08835894398885 0 0 0
377 27 2 -0.55 14.179662428689218 11.436676087912769 12.169035324190407 0 0 0
378 27 1 1.1 14.198129901467079 14.512860521985335 2.5457679882731346 0 0 0
379 22 1 1.1 14.222140120189708 14.93122586070928 5.603856564506148 0 0 0
380 64 1 1.1 14.327639064969938 5.011058406912429 13.59388755837564 0 0 0
381 26 2 -0.55 14.352986015617928 8.358839283792626 11.215060988714935 0 0 0
382 21 2 -0.55 14.419391239698479 13.351624864385808 13.906845820157452 0 0 0
383 28 1 1.1 14.440414231144812 3.3743110313712865 10.939195999904372 0 0 0
384 54 1 1.1 14.459095645478145 3.8543468307857793 6.249245338719003 0 0 0
385 27 2 -0.55 14.5553242918399 14.42438733190005 4.096936557306879 0 0 0
386 24 1 1.1 14.608414136288216 11.78721185139008 13.703541932722157 0 0 0
387 59 2 -0.55 14.641161995600294 6.504622550037426 12.995767589632301 0 0 0
388 15 1 1.1 14.646342090580836 11.622301232055438 10.66969138417404 0 0 0
389 27 2 -0.55 14.65230826517856 17.885702956933404 18.738246542750318 0 0 0
390 47 2 -0.55 14.6665889395603 11.430757709963242 5.075832812055008 0 0 0
391 52 2 -0.55 14.879600936142316 2.843920661484961 5.146884543043058 0 0 0
392 52 2 -0.55 15.037131975139046 12.057415555304296 17.11404049922001 0 0 0
393 12 2 -0.55 15.059340498700275 3.611685061784576 7.720362766197217 0 0 0