# CHO gas-phase: 2 CH4 + 4 O2 (LAMMPS data for ReaxFF)
# Types: 1=C, 2=H, 3=O
# atom_style charge -> id type q x y z

18 atoms
3 atom types

0.000 20.000 xlo xhi
0.000 20.000 ylo yhi
0.000 20.000 zlo zhi

Masses

1 12.011
2 1.008
3 15.999

Atoms

1 1 0.0 2.0 2.0 2.0
2 2 0.0 2.629 2.629 2.629
3 2 0.0 1.371 1.371 2.629
4 2 0.0 1.371 2.629 1.371
5 2 0.0 2.629 1.371 1.371
6 1 0.0 10.0 10.0 10.0
7 2 0.0 10.629 10.629 10.629
8 2 0.0 9.371 9.371 10.629
9 2 0.0 9.371 10.629 9.371
10 2 0.0 10.629 9.371 9.371
11 3 0.0 5.0 5.0 5.0
12 3 0.0 5.0 5.0 6.21
13 3 0.0 15.0 5.0 5.0
14 3 0.0 15.0 5.0 6.21
15 3 0.0 5.0 15.0 5.0
16 3 0.0 5.0 15.0 6.21
17 3 0.0 15.0 15.0 5.0
18 3 0.0 15.0 15.0 6.21
