# CH4 + O2 gas mixture for ReaxFF
# Generated by gen_data_gasmix.py

495 atoms
3 atom types

0.0 70.000000 xlo xhi
0.0 70.000000 ylo yhi
0.0 70.000000 zlo zhi

Masses

1 12.011  # C
2 1.008   # H
3 15.999  # O

Atoms # charge

1 1 0.000000 44.202169 3.650710 20.151935
2 2 0.000000 45.078852 3.776896 19.517267
3 2 0.000000 43.480730 4.438107 19.935527
4 2 0.000000 43.749067 2.679218 19.956480
5 2 0.000000 44.500026 3.708618 21.198467
6 1 0.000000 60.883851 7.737963 29.846840
7 2 0.000000 60.935182 7.086220 30.718561
8 2 0.000000 61.616430 8.538210 29.948002
9 2 0.000000 61.098735 7.160285 28.948278
10 2 0.000000 59.885059 8.167138 29.772519
11 1 0.000000 3.751374 15.123285 44.892373
12 2 0.000000 3.270343 15.886842 45.503021
13 2 0.000000 3.460872 14.135885 45.250074
14 2 0.000000 3.440845 15.239442 43.854404
15 2 0.000000 4.833436 15.230971 44.961993
16 1 0.000000 55.422410 2.428918 55.184071
17 2 0.000000 56.099395 1.704002 55.635168
18 2 0.000000 54.392325 2.108832 55.338248
19 2 0.000000 55.573031 3.403688 55.647145
20 2 0.000000 55.624889 2.499151 54.115721
21 1 0.000000 65.176063 24.215240 8.121226
22 2 0.000000 66.003983 23.717015 7.617618
23 2 0.000000 64.824320 25.044637 7.508300
24 2 0.000000 64.363291 23.505548 8.273016
25 2 0.000000 65.512656 24.593759 9.085968
26 1 0.000000 55.270466 50.162298 37.391054
27 2 0.000000 55.567347 49.302322 37.990723
28 2 0.000000 56.124665 50.825965 37.259941
29 2 0.000000 54.921620 49.822397 36.416337
30 2 0.000000 54.468232 50.698509 37.897216
31 1 0.000000 56.740708 42.822304 58.872655
32 2 0.000000 56.885633 42.014627 58.155749
33 2 0.000000 55.705235 43.159519 58.835468
34 2 0.000000 56.969968 42.463252 59.875562
35 2 0.000000 57.401994 43.651817 58.623843
36 1 0.000000 17.041286 21.099606 7.266270
37 2 0.000000 16.481254 20.660765 8.091548
38 2 0.000000 17.643684 21.928722 7.636384
39 2 0.000000 17.693027 20.344604 6.827513
40 2 0.000000 16.347181 21.464332 6.509638
41 1 0.000000 43.955173 26.078924 26.431944
42 2 0.000000 43.886249 27.149252 26.239728
43 2 0.000000 44.259640 25.914316 27.465145
44 2 0.000000 42.983623 25.615978 26.261438
45 2 0.000000 44.691181 25.636149 25.761464
46 1 0.000000 44.770335 42.202646 13.295151
47 2 0.000000 44.806556 42.667661 14.279910
48 2 0.000000 44.653310 41.125045 13.406419
49 2 0.000000 43.926205 42.603735 12.734908
50 2 0.000000 45.695270 42.414144 12.759367
51 1 0.000000 67.308541 44.239984 38.758683
52 2 0.000000 66.968488 44.757428 37.862069
53 2 0.000000 67.410474 43.175914 38.547341
54 2 0.000000 68.272791 44.643055 39.066995
55 2 0.000000 66.582412 44.383539 39.558326
56 1 0.000000 17.117173 4.118616 22.819901
57 2 0.000000 16.637176 5.096827 22.817419
58 2 0.000000 17.511046 3.909825 23.814170
59 2 0.000000 16.387633 3.355374 22.550579
60 2 0.000000 17.932836 4.112437 22.097436
61 1 0.000000 59.840263 22.768740 45.258952
62 2 0.000000 59.393097 23.677183 44.856367
63 2 0.000000 60.022922 22.063794 44.448404
64 2 0.000000 60.783308 23.013507 45.746862
65 2 0.000000 59.161727 22.320477 45.984175
66 1 0.000000 19.482091 18.277416 39.050297
67 2 0.000000 19.325303 18.641814 38.035441
68 2 0.000000 19.541789 19.123166 39.734726
69 2 0.000000 18.650236 17.635205 39.338191
70 2 0.000000 20.411036 17.709478 39.092829
71 1 0.000000 28.360433 16.475170 67.837482
72 2 0.000000 27.829943 15.656706 68.323277
73 2 0.000000 28.537082 17.272429 68.558921
74 2 0.000000 29.314477 16.113390 67.455100
75 2 0.000000 27.760232 16.858155 67.012630
76 1 0.000000 9.236843 43.411439 54.277238
77 2 0.000000 9.913245 43.093354 55.070083
78 2 0.000000 8.340239 43.846717 54.717618
79 2 0.000000 9.732563 44.154576 53.653292
80 2 0.000000 8.961324 42.551108 53.667959
81 1 0.000000 67.744011 36.921547 66.091173
82 2 0.000000 67.518205 36.047730 66.701710
83 2 0.000000 67.998909 37.760546 66.738017
84 2 0.000000 68.585819 36.699180 65.436029
85 2 0.000000 66.873112 37.178731 65.488935
86 1 0.000000 46.992884 37.440042 19.610463
87 2 0.000000 47.095445 38.081223 20.485488
88 2 0.000000 46.616994 36.464366 19.917161
89 2 0.000000 46.294714 37.893705 18.907577
90 2 0.000000 47.964385 37.320873 19.131624
91 1 0.000000 31.945765 64.951851 59.806294
92 2 0.000000 31.056220 65.508716 60.099403
93 2 0.000000 32.729587 65.648735 59.510868
94 2 0.000000 32.291723 64.351244 60.647058
95 2 0.000000 31.705529 64.298710 58.967847
96 1 0.000000 62.233437 59.454226 21.697356
97 2 0.000000 62.490654 58.397405 21.632018
98 2 0.000000 61.214742 59.602849 21.340327
99 2 0.000000 62.306573 59.782435 22.733807
100 2 0.000000 62.921781 60.034214 21.083273
101 1 0.000000 52.325713 37.599016 53.389348
102 2 0.000000 53.206920 37.484576 54.019964
103 2 0.000000 51.442286 37.713027 54.016929
104 2 0.000000 52.441047 38.481549 52.760751
105 2 0.000000 52.212598 36.716912 52.759747
106 1 0.000000 3.285465 63.320509 59.995644
107 2 0.000000 4.348381 63.087880 60.053895
108 2 0.000000 2.730666 62.651360 60.652712
109 2 0.000000 3.121913 64.352168 60.305853
110 2 0.000000 2.940900 63.190627 58.970117
111 1 0.000000 59.948634 64.498663 7.653128
112 2 0.000000 59.213661 65.151631 8.122967
113 2 0.000000 60.413227 63.869557 8.411862
114 2 0.000000 59.455140 63.870032 6.912461
115 2 0.000000 60.712505 65.103434 7.165221
116 1 0.000000 52.545072 10.473837 33.368637
117 2 0.000000 51.528374 10.159959 33.133889
118 2 0.000000 52.676216 10.501188 34.450004
119 2 0.000000 53.252510 9.767761 32.934713
120 2 0.000000 52.723189 11.466438 32.955942
121 1 0.000000 29.927104 15.978682 37.593542
122 2 0.000000 30.305382 16.223303 38.585694
123 2 0.000000 29.455356 14.996734 37.616613
124 2 0.000000 29.195039 16.726278 37.289434
125 2 0.000000 30.752639 15.968412 36.882425
126 1 0.000000 67.679858 44.891952 30.914606
127 2 0.000000 68.008669 44.203233 31.692327
128 2 0.000000 66.887028 45.529218 31.305262
129 2 0.000000 68.519615 45.509836 30.597859
130 2 0.000000 67.304119 44.325520 30.062974
131 1 0.000000 24.313647 40.828375 17.187572
132 2 0.000000 25.219230 40.832383 17.793546
133 2 0.000000 23.459839 41.097807 17.808635
134 2 0.000000 24.415546 41.549873 16.377413
135 2 0.000000 24.159974 39.833439 16.770696
136 1 0.000000 17.110158 61.757721 58.735936
137 2 0.000000 18.025455 61.246085 59.032180
138 2 0.000000 16.966995 62.637789 59.362263
139 2 0.000000 17.185993 62.062843 57.692648
140 2 0.000000 16.262188 61.084166 58.856655
141 1 0.000000 16.139629 10.732582 63.743940
142 2 0.000000 15.309673 10.865859 63.050608
143 2 0.000000 15.838848 10.058141 64.545164
144 2 0.000000 16.991779 10.308901 63.213246
145 2 0.000000 16.418217 11.697428 64.166742
146 1 0.000000 55.294802 14.567054 8.397434
147 2 0.000000 55.105110 15.190514 9.270712
148 2 0.000000 54.375281 14.456630 7.823336
149 2 0.000000 56.057241 15.035302 7.775557
150 2 0.000000 55.641575 13.585771 8.720130
151 1 0.000000 50.119006 46.442060 66.954904
152 2 0.000000 50.280233 46.799619 67.971495
153 2 0.000000 50.935385 46.780031 66.317250
154 2 0.000000 50.084485 45.352974 66.954128
155 2 0.000000 49.175922 46.835616 66.576742
156 1 0.000000 58.870387 18.411318 14.553788
157 2 0.000000 58.299355 18.067980 15.415960
158 2 0.000000 58.283985 19.141909 13.997308
159 2 0.000000 59.797884 18.872077 14.892538
160 2 0.000000 59.100325 17.563306 13.909346
161 1 0.000000 18.487226 62.935530 31.246629
162 2 0.000000 19.454247 63.019931 30.751608
163 2 0.000000 18.320295 61.900508 31.543554
164 2 0.000000 18.474477 63.573373 32.129972
165 2 0.000000 17.699883 63.248307 30.561382
166 1 0.000000 67.952643 57.177821 65.953753
167 2 0.000000 68.775746 57.728190 65.498896
168 2 0.000000 67.644807 56.370460 65.289896
169 2 0.000000 68.277270 56.760740 66.906623
170 2 0.000000 67.112748 57.851893 66.119597
171 1 0.000000 34.052314 16.107322 28.468659
172 2 0.000000 34.629528 16.939471 28.066600
173 2 0.000000 34.565047 15.695939 29.337664
174 2 0.000000 33.064055 16.459449 28.763025
175 2 0.000000 33.950626 15.334428 27.707348
176 1 0.000000 19.503402 53.748660 32.030552
177 2 0.000000 19.712440 52.948917 31.320612
178 2 0.000000 19.145458 54.626637 31.493587
179 2 0.000000 18.741147 53.418360 32.735656
180 2 0.000000 20.414563 54.000724 32.572354
181 1 0.000000 38.680709 49.414946 12.216590
182 2 0.000000 39.406719 49.961466 11.615320
183 2 0.000000 37.918978 48.986632 11.565735
184 2 0.000000 39.185963 48.616268 12.758930
185 2 0.000000 38.211177 50.095419 12.926377
186 1 0.000000 37.784883 51.366387 5.772908
187 2 0.000000 37.185936 51.160122 4.886332
188 2 0.000000 37.297593 50.937806 6.648218
189 2 0.000000 38.773492 50.923769 5.654406
190 2 0.000000 37.882512 52.443851 5.902677
191 1 0.000000 12.390560 65.411408 7.287357
192 2 0.000000 13.372567 65.557899 6.838466
193 2 0.000000 11.880412 66.371012 7.366154
194 2 0.000000 11.803096 64.737853 6.664050
195 2 0.000000 12.506165 64.978867 8.280757
196 1 0.000000 18.250213 41.238264 42.879180
197 2 0.000000 17.944518 42.223429 43.230322
198 2 0.000000 17.494076 40.843598 42.201097
199 2 0.000000 19.201920 41.318788 42.354709
200 2 0.000000 18.360338 40.567241 43.730591
201 1 0.000000 63.690613 15.481107 49.268659
202 2 0.000000 64.588320 16.097318 49.227359
203 2 0.000000 62.877526 16.053254 49.714572
204 2 0.000000 63.411133 15.178391 48.259920
205 2 0.000000 63.885472 14.595465 49.872785
206 1 0.000000 21.799807 22.867695 51.623056
207 2 0.000000 22.160149 23.738137 51.075531
208 2 0.000000 22.559526 22.546341 52.334997
209 2 0.000000 20.887087 23.127650 52.158468
210 2 0.000000 21.592466 22.058651 50.923229
211 1 0.000000 67.742366 6.835208 16.068185
212 2 0.000000 67.780182 6.096782 15.267811
213 2 0.000000 67.679576 7.834320 15.637914
214 2 0.000000 66.866769 6.651990 16.690328
215 2 0.000000 68.642935 6.757739 16.676685
216 1 0.000000 60.031836 26.388788 12.411291
217 2 0.000000 59.541024 25.468613 12.095567
218 2 0.000000 61.029717 26.435917 11.976190
219 2 0.000000 59.448267 27.245441 12.075296
220 2 0.000000 60.108336 26.405180 13.498112
221 1 0.000000 67.157382 45.162437 2.516325
222 2 0.000000 66.628365 44.230875 2.715406
223 2 0.000000 68.102382 45.166557 3.058781
224 2 0.000000 67.351673 45.248555 1.447618
225 2 0.000000 66.547109 46.003761 2.843496
226 1 0.000000 63.969380 10.863214 9.618292
227 2 0.000000 64.213989 11.741761 10.214631
228 2 0.000000 64.695271 10.757548 8.812552
229 2 0.000000 63.996663 9.976082 10.250394
230 2 0.000000 62.971597 10.977463 9.195591
231 1 0.000000 41.918769 49.362404 15.437423
232 2 0.000000 41.477546 49.742330 16.358444
233 2 0.000000 41.743037 48.289400 15.366152
234 2 0.000000 41.463311 49.862575 14.583205
235 2 0.000000 42.991180 49.555313 15.441890
236 1 0.000000 61.752208 57.842845 8.091699
237 2 0.000000 60.677012 57.677917 8.028038
238 2 0.000000 61.975048 58.451722 8.967434
239 2 0.000000 62.262373 56.883785 8.176768
240 2 0.000000 62.094401 58.357955 7.194555
241 1 0.000000 52.893869 44.049483 19.289047
242 2 0.000000 52.563457 43.309724 20.017666
243 2 0.000000 53.155903 43.549473 18.357045
244 2 0.000000 52.090533 44.762375 19.105370
245 2 0.000000 53.765582 44.576360 19.676108
246 1 0.000000 2.638200 6.966095 60.285022
247 2 0.000000 2.922787 6.498465 59.342879
248 2 0.000000 3.378856 6.726835 61.047573
249 2 0.000000 2.588152 8.046622 60.153659
250 2 0.000000 1.663007 6.592457 60.595977
251 1 0.000000 40.445631 11.774190 10.411404
252 2 0.000000 41.036572 11.414646 9.569491
253 2 0.000000 39.714157 12.500354 10.057948
254 2 0.000000 39.928988 10.935412 10.877057
255 2 0.000000 41.102808 12.246348 11.141121
256 1 0.000000 58.806370 61.329026 15.865052
257 2 0.000000 59.308559 62.225340 16.227996
258 2 0.000000 58.305362 60.832003 16.695268
259 2 0.000000 58.070980 61.605270 15.109942
260 2 0.000000 59.540581 60.653492 15.427000
261 1 0.000000 60.352890 28.820908 42.963660
262 2 0.000000 59.989446 28.186456 42.155774
263 2 0.000000 60.871503 29.682312 42.543750
264 2 0.000000 59.510460 29.161727 43.564870
265 2 0.000000 61.040151 28.253137 43.590245
266 1 0.000000 66.429598 55.510934 60.173470
267 2 0.000000 67.423850 55.906395 60.379320
268 2 0.000000 66.350565 55.259169 59.116271
269 2 0.000000 66.263084 54.616598 60.773251
270 2 0.000000 65.680894 56.261571 60.425036
271 1 0.000000 55.509455 19.609177 53.966718
272 2 0.000000 55.124515 19.180746 53.041748
273 2 0.000000 56.277072 20.346548 53.733594
274 2 0.000000 54.696654 20.090346 54.509978
275 2 0.000000 55.939578 18.819067 54.581551
276 3 0.000000 17.220894 56.162194 32.430907
277 3 0.000000 16.140357 55.627238 32.329120
278 3 0.000000 3.041937 14.437402 23.653857
279 3 0.000000 4.081768 15.055730 23.676721
280 3 0.000000 43.814052 28.669175 66.841821
281 3 0.000000 44.861537 28.088372 66.669938
282 3 0.000000 66.236377 14.329201 65.342028
283 3 0.000000 65.856504 13.241751 65.712501
284 3 0.000000 49.915285 22.409823 41.507997
285 3 0.000000 50.252663 22.995583 42.511571
286 3 0.000000 19.066961 49.316219 1.996973
287 3 0.000000 18.556410 48.243439 2.226276
288 3 0.000000 51.063782 45.720722 25.784520
289 3 0.000000 50.873628 46.802240 26.292714
290 3 0.000000 22.942430 58.343430 49.084664
291 3 0.000000 22.494435 57.594587 49.922898
292 3 0.000000 28.528215 20.911045 10.351304
293 3 0.000000 28.588636 22.115442 10.450686
294 3 0.000000 61.277684 43.145022 21.862514
295 3 0.000000 61.892648 42.102947 21.862869
296 3 0.000000 30.525343 40.848732 45.345109
297 3 0.000000 30.219892 39.709259 45.076034
298 3 0.000000 33.459794 62.014800 54.379116
299 3 0.000000 33.000783 60.941069 54.696152
300 3 0.000000 43.177130 24.068567 56.098140
301 3 0.000000 44.371063 24.176283 55.933757
302 3 0.000000 14.706652 3.951315 18.406413
303 3 0.000000 15.578499 3.272837 17.912803
304 3 0.000000 28.782692 43.764839 14.855584
305 3 0.000000 29.923521 43.364191 14.809868
306 3 0.000000 45.091818 1.826195 51.386421
307 3 0.000000 45.507840 2.905721 51.740890
308 3 0.000000 13.219306 65.617460 36.432409
309 3 0.000000 13.997736 64.834057 35.938014
310 3 0.000000 32.310169 55.066849 46.609887
311 3 0.000000 31.942792 54.720143 45.510374
312 3 0.000000 61.337161 42.270834 49.178828
313 3 0.000000 60.331061 42.599272 49.765335
314 3 0.000000 60.739903 51.334115 33.053426
315 3 0.000000 61.691567 50.828403 33.603600
316 3 0.000000 53.106372 36.625730 43.332937
317 3 0.000000 51.981034 36.185845 43.397857
318 3 0.000000 19.600023 23.586427 37.511420
319 3 0.000000 20.266371 22.615237 37.788674
320 3 0.000000 48.510342 6.812436 29.058000
321 3 0.000000 48.736985 5.665772 28.745117
322 3 0.000000 30.278755 61.467049 40.574990
323 3 0.000000 29.180189 61.971630 40.523493
324 3 0.000000 27.290948 1.874110 25.473465
325 3 0.000000 26.919348 2.904173 24.958697
326 3 0.000000 29.367422 51.862956 38.118521
327 3 0.000000 29.943387 50.809113 37.970944
328 3 0.000000 30.334362 4.222196 24.478571
329 3 0.000000 31.195987 3.609080 23.890529
330 3 0.000000 32.986756 10.688826 42.543346
331 3 0.000000 32.708744 10.158043 43.594573
332 3 0.000000 3.467294 44.929353 10.887153
333 3 0.000000 4.110176 43.913601 11.025179
334 3 0.000000 15.453296 23.335858 52.450438
335 3 0.000000 16.485862 23.807788 52.031883
336 3 0.000000 18.874548 7.967565 3.279194
337 3 0.000000 18.425294 6.844057 3.279400
338 3 0.000000 44.340050 53.359266 45.045643
339 3 0.000000 45.478970 53.763496 44.985972
340 3 0.000000 2.814890 12.323457 10.449107
341 3 0.000000 3.875273 11.791012 10.212062
342 3 0.000000 47.666100 52.727428 13.397899
343 3 0.000000 48.663276 52.503121 12.750268
344 3 0.000000 56.133251 66.231431 8.913030
345 3 0.000000 56.014504 65.111711 9.356004
346 3 0.000000 64.828927 28.455211 48.842624
347 3 0.000000 65.649888 27.903176 49.539317
348 3 0.000000 9.212944 53.263904 58.342776
349 3 0.000000 8.238029 52.703573 57.895931
350 3 0.000000 54.027436 25.260264 29.944889
351 3 0.000000 53.280430 24.570633 30.601008
352 3 0.000000 58.316931 56.761338 9.227053
353 3 0.000000 57.827052 55.786343 8.704078
354 3 0.000000 48.664308 31.324692 50.592804
355 3 0.000000 48.700433 30.159611 50.268177
356 3 0.000000 38.030109 34.091379 31.017394
357 3 0.000000 37.008715 33.730292 30.478439
358 3 0.000000 56.443907 7.786105 59.725160
359 3 0.000000 57.212587 7.653397 60.650157
360 3 0.000000 26.429135 4.006120 58.273600
361 3 0.000000 27.597453 3.782280 58.052175
362 3 0.000000 24.365163 59.504258 48.296400
363 3 0.000000 24.559565 60.697980 48.259855
364 3 0.000000 8.119324 49.756755 33.942094
365 3 0.000000 7.181587 49.293100 34.550182
366 3 0.000000 34.931805 54.116099 7.969123
367 3 0.000000 33.856611 54.551039 8.313920
368 3 0.000000 40.804408 33.614417 36.830254
369 3 0.000000 39.960929 32.855968 37.251441
370 3 0.000000 48.408233 19.330595 18.844147
371 3 0.000000 48.368619 20.430373 18.341138
372 3 0.000000 36.783993 52.434403 14.123807
373 3 0.000000 37.950050 52.174625 14.315972
374 3 0.000000 66.753281 36.101344 20.726774
375 3 0.000000 66.158846 37.150723 20.629055
376 3 0.000000 13.733051 2.340681 37.206830
377 3 0.000000 13.953233 3.526904 37.299002
378 3 0.000000 48.511193 10.034876 59.107963
379 3 0.000000 47.547902 10.634017 59.528915
380 3 0.000000 32.448536 30.804115 14.057712
381 3 0.000000 33.511861 31.337766 14.278293
382 3 0.000000 56.147856 29.038239 6.949444
383 3 0.000000 56.371409 27.855144 6.829402
384 3 0.000000 38.635549 22.091215 67.278330
385 3 0.000000 39.659278 22.015072 67.918862
386 3 0.000000 54.112196 16.430784 36.869682
387 3 0.000000 54.265594 17.359918 36.109893
388 3 0.000000 67.163791 21.754881 43.405022
389 3 0.000000 67.520336 22.555311 42.570584
390 3 0.000000 15.689395 15.391860 45.868141
391 3 0.000000 15.738609 16.463465 45.308373
392 3 0.000000 1.582117 31.700507 41.084085
393 3 0.000000 2.771078 31.765982 41.298993
394 3 0.000000 48.295647 32.500676 47.102999
395 3 0.000000 48.498710 31.431459 47.631810
396 3 0.000000 45.510854 63.242935 30.513108
397 3 0.000000 45.765308 64.001301 29.605235
398 3 0.000000 56.456255 6.261139 12.561648
399 3 0.000000 56.659058 7.164959 13.340160
400 3 0.000000 21.234883 10.772557 47.344383
401 3 0.000000 20.861715 9.642126 47.561112
402 3 0.000000 34.840408 7.860127 4.629626
403 3 0.000000 34.340561 6.758198 4.631998
404 3 0.000000 7.496027 65.212632 57.266435
405 3 0.000000 8.559122 65.759633 57.080102
406 3 0.000000 46.864287 19.774681 4.305844
407 3 0.000000 45.876882 19.800775 5.004736
408 3 0.000000 62.223696 14.205525 41.139856
409 3 0.000000 62.697912 13.751042 40.123655
410 3 0.000000 25.474733 24.270545 46.048403
411 3 0.000000 24.456126 23.726163 46.409220
412 3 0.000000 20.818161 64.900978 55.459168
413 3 0.000000 21.226588 63.864569 55.931549
414 3 0.000000 23.712436 65.558673 28.663178
415 3 0.000000 22.959704 66.505711 28.687930
416 3 0.000000 37.682601 28.762342 14.084894
417 3 0.000000 37.939754 29.786337 14.676001
418 3 0.000000 52.444582 15.933565 38.058867
419 3 0.000000 51.874169 14.936122 38.438126
420 3 0.000000 9.858482 66.744065 41.911381
421 3 0.000000 10.169761 65.711314 42.459679
422 3 0.000000 38.190652 7.832273 67.933256
423 3 0.000000 38.706534 8.471342 67.044686
424 3 0.000000 57.150758 34.383486 49.528325
425 3 0.000000 56.692141 35.402081 49.063314
426 3 0.000000 67.111394 17.671465 38.236676
427 3 0.000000 66.280897 18.501014 38.530314
428 3 0.000000 54.216273 29.982759 63.594160
429 3 0.000000 54.064543 28.789641 63.726628
430 3 0.000000 21.171881 40.627086 67.663232
431 3 0.000000 22.237491 40.848693 68.191876
432 3 0.000000 25.049505 38.931782 38.059121
433 3 0.000000 24.506855 37.921317 37.673647
434 3 0.000000 48.634976 39.815599 17.412371
435 3 0.000000 47.434817 39.661690 17.417872
436 3 0.000000 48.345225 55.080447 27.801829
437 3 0.000000 48.744855 56.025528 27.160566
438 3 0.000000 34.593059 3.870931 35.320617
439 3 0.000000 34.790323 5.015658 34.981815
440 3 0.000000 31.536270 36.532982 31.830042
441 3 0.000000 30.584150 36.892561 32.484464
442 3 0.000000 11.879575 32.555970 65.674617
443 3 0.000000 12.496106 33.416790 66.260262
444 3 0.000000 57.763445 57.866019 58.617495
445 3 0.000000 58.669573 58.643038 58.815673
446 3 0.000000 52.193960 59.928178 4.856682
447 3 0.000000 52.047079 59.226380 3.881999
448 3 0.000000 67.718310 51.740019 31.026719
449 3 0.000000 67.941912 50.833141 30.257516
450 3 0.000000 31.323683 47.208353 61.528694
451 3 0.000000 31.241886 48.399800 61.723282
452 3 0.000000 26.313987 11.999628 37.233820
453 3 0.000000 27.165036 11.215586 36.880134
454 3 0.000000 7.705620 59.809946 43.002690
455 3 0.000000 6.718202 59.140881 42.799079
456 3 0.000000 32.816749 19.137513 19.135012
457 3 0.000000 32.055040 18.387496 18.568114
458 3 0.000000 46.399499 12.077328 30.780043
459 3 0.000000 47.045138 12.775454 31.528288
460 3 0.000000 30.131768 18.688940 57.227468
461 3 0.000000 29.877012 18.324025 58.352650
462 3 0.000000 17.300367 39.846880 40.417019
463 3 0.000000 18.010786 39.646916 39.458156
464 3 0.000000 45.117086 19.819136 39.765733
465 3 0.000000 45.769250 20.412274 38.936897
466 3 0.000000 41.741640 34.327016 61.394745
467 3 0.000000 42.304017 35.240986 61.953754
468 3 0.000000 25.802434 43.981426 42.727623
469 3 0.000000 24.703932 44.052134 43.230010
470 3 0.000000 44.204078 22.511222 31.474784
471 3 0.000000 45.112882 22.267919 30.713877
472 3 0.000000 21.447306 51.460725 14.183007
473 3 0.000000 21.507274 51.206749 13.001482
474 3 0.000000 37.127467 61.781456 56.496636
475 3 0.000000 36.945046 62.798824 57.125750
476 3 0.000000 55.823489 51.174347 24.399802
477 3 0.000000 54.632993 51.371487 24.310611
478 3 0.000000 66.061410 59.309084 49.819187
479 3 0.000000 65.516617 58.229475 49.777419
480 3 0.000000 26.224200 53.654726 2.639478
481 3 0.000000 26.058106 54.715294 3.197785
482 3 0.000000 46.100108 40.042154 56.300037
483 3 0.000000 46.648877 41.119778 56.259046
484 3 0.000000 3.163778 60.375309 39.410348
485 3 0.000000 4.139476 60.343691 38.695426
486 3 0.000000 56.698517 61.570018 22.187241
487 3 0.000000 56.050389 62.469150 21.701862
488 3 0.000000 22.375761 34.037982 8.175090
489 3 0.000000 21.800364 34.988467 8.654253
490 3 0.000000 46.289241 51.598139 64.681602
491 3 0.000000 46.214940 50.496357 64.186977
492 3 0.000000 28.959251 8.958410 34.386758
493 3 0.000000 29.805507 8.112445 34.207051
494 3 0.000000 27.032816 31.426962 64.663585
495 3 0.000000 25.877139 31.099605 64.809697
