ITEM: TIMESTEP
0
ITEM: NUMBER OF ATOMS
1080
ITEM: BOX BOUNDS pp pp pp
0.0000000000000000e+00 6.0000000000000000e+01
0.0000000000000000e+00 6.0000000000000000e+01
0.0000000000000000e+00 6.0000000000000000e+01
ITEM: ATOMS id type q x y z
1 1 -0.455946 36.2548 49.8607 43.7843
2 2 0.181784 36.0295 48.8012 43.6625
3 2 0.183458 35.5384 50.4523 43.2144
4 2 0.177683 36.1886 50.1273 44.8391
5 2 0.173906 37.2626 50.0619 43.4212
6 1 -0.457328 5.26326 46.0614 44.8535
7 2 0.183787 5.76707 45.1157 45.0531
8 2 0.178574 6.00051 46.8137 44.5732
9 2 0.187396 4.55142 45.929 44.0387
10 2 0.177753 4.73407 46.3873 45.7489
11 1 -0.450763 17.7435 27.2538 30.2274
12 2 0.188531 17.5082 26.4427 29.5384
13 2 0.198901 18.3441 26.8681 31.0511
14 2 0.198959 18.3028 28.0271 29.7009
15 2 0.187146 16.8187 27.6774 30.6193
16 1 -0.456685 36.109 54.448 15.7654
17 2 0.180783 36.1621 55.3841 15.2095
18 2 0.184621 35.217 53.8977 15.4661
19 2 0.173447 36.9941 53.8485 15.5529
20 2 0.186173 36.0627 54.6618 16.8333
21 1 -0.4566 6.78401 30.7444 28.3103
22 2 0.183007 7.56517 31.2341 28.8918
23 2 0.179055 6.52299 29.7956 28.7789
24 2 0.182118 5.90325 31.3855 28.2726
25 2 0.182138 7.14465 30.5626 27.2979
26 1 -0.457006 29.8437 17.3757 5.5897
27 2 0.182199 29.8969 17.28 4.50522
28 2 0.184564 28.7996 17.418 5.89989
29 2 0.202361 30.3262 16.516 6.05445
30 2 0.179273 30.3519 18.289 5.89925
31 1 -0.45409 23.4768 5.18671 46.5024
32 2 0.184881 23.6373 4.16445 46.1598
33 2 0.182843 22.6255 5.61715 45.9751
34 2 0.176772 23.2769 5.18369 47.5739
35 2 0.171557 24.3677 5.78155 46.3007
36 1 -0.452553 30.4895 47.3575 36.9859
37 2 0.191333 30.223 48.3802 37.2528
38 2 0.20713 29.7091 46.6776 37.3275
39 2 0.164822 30.5913 47.2793 35.9034
40 2 0.182887 31.4349 47.093 37.4597
41 1 -0.457598 30.3886 48.567 23.0632
42 2 0.171183 30.5135 49.1558 23.9719
43 2 0.18698 29.6802 49.0656 22.4016
44 2 0.205295 31.3499 48.469 22.5587
45 2 0.176922 30.0108 47.5774 23.3205
46 1 -0.44885 21.1518 12.51 45.8169
47 2 0.181716 20.0902 12.7084 45.9642
48 2 0.185472 21.2784 11.5256 45.3662
49 2 0.185471 21.5752 13.2683 45.1583
50 2 0.193722 21.6635 12.5376 46.779
51 1 -0.457616 35.2528 36.8998 38.8225
52 2 0.184834 34.5282 36.4159 38.1677
53 2 0.185585 36.2518 36.5258 38.5983
54 2 0.194462 35.224 37.9776 38.6626
55 2 0.192797 35.0073 36.68 39.8615
56 1 -0.45602 25.1249 9.83521 53.3914
57 2 0.177386 25.4239 9.40937 52.4336
58 2 0.182652 24.1117 9.51319 53.6318
59 2 0.180947 25.8084 9.49518 54.1694
60 2 0.183849 25.1557 10.9231 53.3308
61 1 -0.46138 48.7039 38.1107 11.5808
62 2 0.157591 49.693 37.6994 11.3797
63 2 0.16322 48.5954 38.2898 12.6505
64 2 0.160367 48.5844 39.0502 11.0412
65 2 0.173057 47.9425 37.4035 11.2518
66 1 -0.454815 33.486 12.273 14.6232
67 2 0.172744 32.4296 12.1738 14.873
68 2 0.194628 34.0913 11.9025 15.4504
69 2 0.211394 33.7031 11.6933 13.726
70 2 0.180902 33.7198 13.3223 14.4432
71 1 -0.455125 49.2028 37.0786 33.4847
72 2 0.201149 48.7012 36.1563 33.1917
73 2 0.165246 50.2821 36.9269 33.4663
74 2 0.212562 48.9358 37.8742 32.7891
75 2 0.185362 48.8922 37.357 34.4917
76 1 -0.450208 6.90286 48.8109 28.3865
77 2 0.175234 5.94983 48.3307 28.1647
78 2 0.185542 6.72506 49.8306 28.7282
79 2 0.203269 7.41897 48.2512 29.1665
80 2 0.19823 7.51759 48.8313 27.4866
81 1 -0.446175 6.25984 23.6093 6.51752
82 2 0.181639 5.28033 23.5486 6.04321
83 2 0.212343 6.93808 22.9004 6.04254
84 2 0.217203 6.6547 24.6193 6.40777
85 2 0.197832 6.16626 23.3688 7.57654
86 1 -0.456746 26.411 31.187 48.6405
87 2 0.193318 26.8027 32.0812 49.1253
88 2 0.163174 27.0152 30.955 47.7634
89 2 0.18437 26.4468 30.3502 49.338
90 2 0.177041 25.3793 31.3616 48.3351
91 1 -0.456895 22.7707 30.9549 43.2624
92 2 0.160483 23.7243 30.595 43.6486
93 2 0.19843 21.9631 30.6064 43.9062
94 2 0.182401 22.7749 32.0447 43.2424
95 2 0.195388 22.6205 30.5736 42.2524
96 1 -0.451562 11.8382 25.9452 45.7628
97 2 0.197656 12.5582 26.6539 45.3536
98 2 0.170084 11.2709 25.493 44.9493
99 2 0.21026 12.3669 25.1671 46.3134
100 2 0.175589 11.1568 26.4667 46.435
101 1 -0.446847 30.6502 41.2925 16.3212
102 2 0.188035 30.2537 40.2775 16.2934
103 2 0.193068 31.4528 41.3891 15.5901
104 2 0.202085 29.8554 41.9996 16.0838
105 2 0.197296 31.0388 41.5036 17.3174
106 1 -0.458476 22.3031 52.4062 33.6666
107 2 0.1743 22.6378 51.4097 33.9548
108 2 0.171835 21.4641 52.3221 32.9759
109 2 0.180036 21.989 52.9549 34.5546
110 2 0.158824 23.1214 52.9381 33.1813
111 1 -0.454389 27.2239 54.0197 30.7761
112 2 0.159949 26.854 52.9958 30.7229
113 2 0.183051 28.3086 54.0091 30.8826
114 2 0.175363 26.9536 54.5516 29.8639
115 2 0.176565 26.7794 54.5225 31.6351
116 1 -0.457229 34.0326 26.3325 48.9094
117 2 0.187807 33.8661 27.093 48.1465
118 2 0.189171 34.9526 26.5554 49.4499
119 2 0.173556 33.1943 26.3269 49.606
120 2 0.153577 34.1176 25.3547 48.4352
121 1 -0.457497 17.55 45.302 38.8236
122 2 0.162477 18.0091 46.2092 39.2163
123 2 0.212371 16.4717 45.3446 38.9773
124 2 0.170205 17.762 45.2196 37.7576
125 2 0.193337 17.957 44.4345 39.3431
126 1 -0.453953 21.6341 24.9138 15.1456
127 2 0.182366 22.3985 24.3723 14.5884
128 2 0.169654 20.7074 24.9274 14.5718
129 2 0.1951 21.4623 24.419 16.1015
130 2 0.214973 21.968 25.9365 15.3207
131 1 -0.456631 47.0084 10.6203 35.189
132 2 0.184935 47.3686 11.4427 35.807
133 2 0.178122 47.8037 10.2943 34.5186
134 2 0.181984 46.7087 9.78974 35.8281
135 2 0.17715 46.1527 10.9544 34.6022
136 1 -0.451611 20.333 53.0675 28.292
137 2 0.203968 19.4566 53.1119 27.6454
138 2 0.189882 20.0492 52.657 29.261
139 2 0.173296 21.0898 52.4301 27.8349
140 2 0.171542 20.7363 54.0712 28.4267
141 1 -0.461506 8.09327 25.5758 43.2015
142 2 0.174778 7.44041 26.4025 42.9212
143 2 0.175112 8.02057 25.4035 44.2753
144 2 0.178789 7.78919 24.6755 42.6676
145 2 0.159153 9.12291 25.8219 42.9419
146 1 -0.454535 50.6677 45.1018 48.8846
147 2 0.184806 50.7789 45.9042 48.1553
148 2 0.176307 51.4113 45.2214 49.6725
149 2 0.190993 49.6687 45.1413 49.3187
150 2 0.195858 50.812 44.1404 48.3917
151 1 -0.452777 6.51444 6.01078 17.6384
152 2 0.187673 6.77506 6.60509 16.7627
153 2 0.174434 5.46286 6.16342 17.8813
154 2 0.187236 6.68903 4.95588 17.4267
155 2 0.203177 7.13081 6.31872 18.483
156 1 -0.457589 6.94929 34.5194 13.3006
157 2 0.180263 6.64762 34.7351 14.3255
158 2 0.184243 6.96205 35.4439 12.7233
159 2 0.179818 7.94558 34.0772 13.3005
160 2 0.172405 6.24192 33.8213 12.8529
161 1 -0.453009 51.9171 31.9198 45.5794
162 2 0.199923 50.9832 31.853 45.0212
163 2 0.197744 51.8063 31.408 46.5354
164 2 0.181708 52.7171 31.4507 45.0066
165 2 0.183705 52.1617 32.9675 45.7543
166 1 -0.455905 33.7197 6.98432 45.0832
167 2 0.185383 33.9092 8.03133 45.3198
168 2 0.183362 33.6923 6.40279 46.0047
169 2 0.171523 32.7629 6.89542 44.5689
170 2 0.180832 34.5146 6.60774 44.4395
171 1 -0.45743 21.933 20.9002 10.6358
172 2 0.180696 21.3984 19.9541 10.7205
173 2 0.159677 21.2564 21.7221 10.8699
174 2 0.177768 22.7698 20.9084 11.3342
175 2 0.175136 22.3074 21.0161 9.61876
176 1 -0.446597 48.1405 44.8563 11.4569
177 2 0.197427 47.0927 45.1295 11.5824
178 2 0.232607 48.7676 45.5609 12.0032
179 2 0.168863 48.3025 43.8502 11.8436
180 2 0.17356 48.3991 44.8847 10.3984
181 1 -0.459406 9.81228 38.0596 36.5977
182 2 0.181091 9.49019 37.112 37.0296
183 2 0.198118 9.18608 38.8651 36.9812
184 2 0.18899 10.8515 38.2473 36.8677
185 2 0.18299 9.72135 38.0138 35.5125
186 1 -0.448382 41.1024 48.3637 49.6474
187 2 0.176789 40.3198 48.774 49.0091
188 2 0.177569 41.2262 47.302 49.4336
189 2 0.204536 42.0398 48.8851 49.4537
190 2 0.207525 40.8237 48.4936 50.6931
191 1 -0.451848 15.7338 33.1855 52.2402
192 2 0.198224 16.6136 33.4465 51.652
193 2 0.184129 15.2041 34.0947 52.5246
194 2 0.177441 15.0749 32.5517 51.6468
195 2 0.202224 16.0426 32.6491 53.1375
196 1 -0.453694 37.8622 10.0549 24.0292
197 2 0.188 38.8329 10.5506 24.015
198 2 0.201774 37.3132 10.3051 23.1214
199 2 0.181333 38.0061 8.97573 24.0811
200 2 0.184409 37.2967 10.3884 24.8994
201 1 -0.457543 23.8427 23.5862 31.9761
202 2 0.160449 24.8432 23.1777 31.8335
203 2 0.185853 23.7408 24.5067 31.4014
204 2 0.194665 23.1026 22.8618 31.6361
205 2 0.206851 23.6842 23.7985 33.0334
206 1 -0.445423 27.8713 9.07657 42.6366
207 2 0.172902 27.9426 8.60104 43.6148
208 2 0.194292 28.0163 8.3283 41.8574
209 2 0.211426 26.8871 9.53159 42.5247
210 2 0.214549 28.639 9.84537 42.5495
211 1 -0.456244 43.159 11.5539 11.6603
212 2 0.178403 43.6402 11.8841 10.7397
213 2 0.203003 43.0637 10.4682 11.6513
214 2 0.181807 43.7627 11.8586 12.5152
215 2 0.193624 42.1696 12.005 11.7351
216 1 -0.458064 18.4622 20.3205 46.6397
217 2 0.188436 19.3608 20.9143 46.8072
218 2 0.193403 17.5815 20.9485 46.7741
219 2 0.175752 18.4734 19.9228 45.6249
220 2 0.175406 18.4331 19.4965 47.3526
221 1 -0.454438 49.1961 23.7687 40.5441
222 2 0.199475 50.2182 23.4186 40.3998
223 2 0.19403 48.8831 24.345 39.6734
224 2 0.195264 48.5333 22.9127 40.6706
225 2 0.195257 49.1498 24.3985 41.4325
226 1 -0.454829 46.2883 38.7101 23.5366
227 2 0.154848 45.8389 39.684 23.3431
228 2 0.193332 46.7816 38.3516 22.6332
229 2 0.184198 47.0207 38.8008 24.3388
230 2 0.199583 45.5122 38.0038 23.8314
231 1 -0.448618 14.5419 18.3119 31.806
232 2 0.18831 13.9429 19.2098 31.6541
233 2 0.212185 15.2836 18.497 32.583
234 2 0.177125 13.8939 17.4901 32.1107
235 2 0.21769 15.0472 18.0506 30.8762
236 1 -0.448601 41.0486 54.8386 51.959
237 2 0.206348 41.4168 54.0217 52.5797
238 2 0.193294 40.0048 55.0374 52.2018
239 2 0.176454 41.6422 55.7334 52.1466
240 2 0.187537 41.1309 54.5618 50.9079
241 1 -0.457145 37.0615 14.2223 42.9747
242 2 0.155773 37.8401 13.6634 43.4938
243 2 0.186295 36.1041 13.7175 43.1043
244 2 0.195944 37.0002 15.2291 43.3878
245 2 0.208078 37.3014 14.2791 41.913
246 1 -0.453688 23.909 25.9885 6.66696
247 2 0.174134 24.7392 25.304 6.493
248 2 0.174095 23.5925 25.9188 7.70766
249 2 0.194086 24.2279 27.0084 6.45176
250 2 0.187446 23.0765 25.723 6.01542
251 1 -0.44978 32.4014 41.082 24.073
252 2 0.200441 32.3897 40.7075 25.0966
253 2 0.197752 31.4881 41.6453 23.8818
254 2 0.203841 33.2651 41.7322 23.9339
255 2 0.182144 32.4628 40.2431 23.3799
256 1 -0.460047 11.8908 43.0187 54.6474
257 2 0.177667 12.9722 42.9433 54.5329
258 2 0.155792 11.4886 43.6751 53.8758
259 2 0.180448 11.4453 42.0286 54.5506
260 2 0.182895 11.6571 43.4276 55.6304
261 1 -0.454773 51.0286 11.1691 9.5905
262 2 0.179877 50.2922 11.346 10.3744
263 2 0.186744 52.0211 11.0937 10.0347
264 2 0.184693 50.7911 10.2402 9.07185
265 2 0.198375 51.0099 11.9964 8.88105
266 1 -0.442597 33.7476 27.3137 42.5196
267 2 0.178737 32.7385 27.5133 42.1592
268 2 0.228322 34.435 28.0488 42.1011
269 2 0.188665 33.7644 27.3787 43.6075
270 2 0.167461 34.0527 26.3139 42.2106
271 1 -0.454934 43.4556 8.38018 28.6701
272 2 0.180085 43.6646 7.48809 28.0797
273 2 0.180431 43.6932 9.26782 28.0839
274 2 0.17931 42.4003 8.39648 28.9426
275 2 0.176744 44.0641 8.36831 29.5744
276 1 -0.451194 40.9874 27.7509 7.83872
277 2 0.217312 41.923 27.5303 8.35275
278 2 0.192999 40.2204 28.001 8.57163
279 2 0.175362 41.1338 28.5942 7.16376
280 2 0.192003 40.6726 26.8781 7.26672
281 1 -0.451327 11.2453 6.6512 30.1668
282 2 0.213014 11.9139 6.29166 29.3846
283 2 0.17323 10.2443 6.25334 30.0003
284 2 0.197142 11.6112 6.31935 31.1385
285 2 0.192521 11.2118 7.74044 30.1439
286 1 -0.452328 29.2121 14.1852 38.4932
287 2 0.182443 28.8649 13.9982 37.4771
288 2 0.200542 29.6014 13.2608 38.92
289 2 0.189936 30.0008 14.9373 38.4751
290 2 0.195757 28.3814 14.5443 39.1007
291 1 -0.455688 30.8081 36.4267 31.8104
292 2 0.194043 31.7312 35.9602 31.4665
293 2 0.202336 30.9536 37.5039 31.8915
294 2 0.198294 30.0095 36.2206 31.0978
295 2 0.181937 30.538 36.0221 32.7858
296 1 -0.454208 13.9686 11.8154 10.6596
297 2 0.172487 13.1605 11.5389 11.3368
298 2 0.185292 14.6901 12.4372 11.1896
299 2 0.190881 14.4628 10.9143 10.2966
300 2 0.173994 13.5608 12.3714 9.81532
301 1 -0.447244 53.4954 15.3909 30.3238
302 2 0.202351 53.6299 16.1383 29.5419
303 2 0.189606 54.2476 15.5366 31.0991
304 2 0.193346 52.5011 15.4945 30.7582
305 2 0.188351 53.6029 14.3941 29.896
306 1 -0.454758 20.7675 34.9987 8.31991
307 2 0.174989 19.8261 35.3619 8.73216
308 2 0.194103 20.7855 35.1756 7.2445
309 2 0.19021 21.5975 35.5273 8.78893
310 2 0.194998 20.8611 33.9303 8.51406
311 1 -0.455134 43.048 46.449 43.0535
312 2 0.181376 42.5841 45.7659 43.765
313 2 0.209144 44.0746 46.1351 42.8648
314 2 0.202081 42.4867 46.4367 42.1192
315 2 0.185923 43.0465 47.4584 43.4649
316 1 -0.452712 41.7842 20.0822 13.382
317 2 0.193873 42.6612 19.4491 13.5163
318 2 0.193889 40.9317 19.6353 13.8935
319 2 0.194843 41.9815 21.0696 13.7994
320 2 0.194379 41.5622 20.1749 12.3189
321 1 -0.454592 34.8321 21.4717 51.8322
322 2 0.162581 33.9528 22.0075 51.4748
323 2 0.184994 34.905 20.5115 51.3214
324 2 0.183986 35.7255 22.0614 51.6264
325 2 0.177064 34.7453 21.3064 52.906
326 1 -0.451353 37.1841 52.5281 26.6746
327 2 0.182096 38.1935 52.6283 27.0735
328 2 0.196844 36.9475 53.3981 26.0619
329 2 0.211077 37.1221 51.6267 26.0649
330 2 0.177755 36.4732 52.4595 27.498
331 1 -0.459396 21.7538 38.4829 15.4519
332 2 0.179496 21.7642 39.2321 14.6603
333 2 0.189729 21.3856 38.9333 16.3736
334 2 0.179774 21.1008 37.659 15.1639
335 2 0.190658 22.7647 38.1071 15.6097
336 1 -0.448664 41.3921 5.77162 52.9175
337 2 0.202349 40.331 6.02042 52.9033
338 2 0.223614 41.9807 6.68673 52.8529
339 2 0.18028 41.6308 5.25082 53.8448
340 2 0.189639 41.6259 5.12852 52.0691
341 1 -0.454381 31.1649 41.5424 9.23789
342 2 0.192236 31.2045 42.3413 9.97841
343 2 0.144451 30.248 41.632 8.65544
344 2 0.185506 32.026 41.6194 8.57404
345 2 0.194051 31.1813 40.577 9.74368
346 1 -0.457115 6.98028 27.641 36.5536
347 2 0.184977 6.23248 28.4158 36.3845
348 2 0.177044 6.48493 26.7166 36.8506
349 2 0.168351 7.54333 27.4728 35.6356
350 2 0.158278 7.66038 27.9588 37.3439
351 1 -0.44456 16.1098 14.7775 48.9345
352 2 0.171048 15.1448 15.2826 48.8942
353 2 0.178716 16.7891 15.2335 48.2143
354 2 0.216003 16.5272 14.8709 49.9371
355 2 0.190754 15.9783 13.7228 48.6926
356 1 -0.452009 40.3658 32.673 45.3523
357 2 0.184764 40.9148 33.2101 46.1257
358 2 0.181411 40.2158 33.3264 44.4929
359 2 0.211671 40.9346 31.7949 45.0463
360 2 0.206923 39.3979 32.3604 45.7444
361 1 -0.451728 38.9046 37.0914 25.3064
362 2 0.20062 37.8262 37.0804 25.4651
363 2 0.195426 39.2596 38.1219 25.2946
364 2 0.184486 39.396 36.5471 26.1128
365 2 0.199367 39.1364 36.6163 24.3532
366 1 -0.450216 30.1828 21.9016 46.3409
367 2 0.21455 30.4208 20.8527 46.1641
368 2 0.152956 31.0828 22.5042 46.2181
369 2 0.209379 29.4268 22.228 45.6268
370 2 0.181425 29.8008 22.0216 47.3547
371 1 -0.451639 27.3644 40.6445 6.71948
372 2 0.219455 26.8656 39.9333 7.37776
373 2 0.194364 27.6273 40.1511 5.78381
374 2 0.178942 26.6956 41.4803 6.51406
375 2 0.149272 28.2693 41.0135 7.20231
376 1 -0.452253 34.1799 26.0315 14.1742
377 2 0.180936 34.9638 25.835 13.4427
378 2 0.19548 34.1381 27.1003 14.3837
379 2 0.194489 33.2204 25.7015 13.776
380 2 0.208927 34.3974 25.4891 15.0943
381 1 -0.456812 54.9529 22.6276 27.369
382 2 0.188464 55.0062 23.6667 27.6939
383 2 0.191524 54.0868 22.4935 26.7209
384 2 0.177292 55.8598 22.3713 26.8212
385 2 0.198217 54.859 21.9789 28.2399
386 1 -0.457997 49.4536 23.8569 18.3451
387 2 0.184975 48.7327 24.319 19.0196
388 2 0.18619 50.4628 24.1464 18.6382
389 2 0.180776 49.357 22.7725 18.3975
390 2 0.18712 49.262 24.1899 17.325
391 1 -0.457518 8.66457 48.3279 20.6483
392 2 0.186019 9.64959 48.7936 20.679
393 2 0.177245 7.8981 49.1016 20.6037
394 2 0.18662 8.59069 47.692 19.766
395 2 0.186226 8.5199 47.7243 21.5443
396 1 -0.445617 46.4024 46.379 28.6836
397 2 0.194388 47.1338 45.669 28.2974
398 2 0.223002 46.5868 46.5497 29.7442
399 2 0.199539 46.4905 47.3215 28.1432
400 2 0.175234 45.3987 45.9757 28.5496
401 1 -0.453359 32.2944 15.067 20.8281
402 2 0.198687 32.3425 16.0269 20.3138
403 2 0.20056 31.988 15.2239 21.8623
404 2 0.172792 31.5709 14.4229 20.3285
405 2 0.182344 33.2765 14.5945 20.8078
406 1 -0.45966 41.6413 45.8715 27.2597
407 2 0.167193 42.1523 45.7643 26.3029
408 2 0.190107 40.5686 45.7429 27.1151
409 2 0.170001 42.0076 45.1152 27.9539
410 2 0.197368 41.8367 46.8635 27.6668
411 1 -0.452661 37.1679 23.8311 36.8582
412 2 0.204446 37.2164 24.5105 36.0072
413 2 0.197081 38.1709 23.4799 37.1003
414 2 0.168489 36.7489 24.3546 37.7176
415 2 0.194768 36.5353 22.9795 36.6076
416 1 -0.45716 36.5507 15.1584 53.1026
417 2 0.210863 36.9782 14.1567 53.1468
418 2 0.182541 37.2092 15.8094 52.5276
419 2 0.192416 35.5729 15.1153 52.6227
420 2 0.171939 36.4424 15.5522 54.1132
421 1 -0.453333 21.0714 43.4128 29.4039
422 2 0.183595 20.9111 43.9748 30.324
423 2 0.191029 21.8854 42.7025 29.5491
424 2 0.195601 20.1605 42.8733 29.1443
425 2 0.176051 21.3285 44.1004 28.5982
426 1 -0.455228 43.3846 42.5129 22.1919
427 2 0.196585 43.4267 42.8277 21.1492
428 2 0.151458 44.3851 42.5487 22.6229
429 2 0.177189 42.7258 43.1809 22.7468
430 2 0.191497 43.0007 41.4943 22.2487
431 1 -0.458014 12.0861 27.0666 36.9912
432 2 0.194384 13.0128 27.6312 37.0948
433 2 0.172992 12.0001 26.6937 35.9705
434 2 0.186398 12.093 26.2265 37.6856
435 2 0.15742 11.2388 27.7151 37.2138
436 1 -0.452514 19.1666 53.0855 6.28956
437 2 0.177863 19.8332 53.8147 5.82925
438 2 0.181578 18.1451 53.2642 5.95378
439 2 0.198541 19.4732 52.08 6.00111
440 2 0.199163 19.2148 53.1829 7.37413
441 1 -0.453045 5.75364 27.9087 13.1461
442 2 0.197142 5.24203 27.6412 12.2216
443 2 0.171197 5.39729 28.8794 13.4908
444 2 0.180278 5.54781 27.1552 13.9064
445 2 0.187489 6.82743 27.9589 12.9657
446 1 -0.456902 35.8564 25.3156 25.8798
447 2 0.206209 36.7661 24.7594 26.1062
448 2 0.192973 35.0256 24.9014 26.4509
449 2 0.190158 35.9949 26.3631 26.1475
450 2 0.180999 35.6391 25.2386 24.8144
451 1 -0.45172 15.6916 52.6678 49.3099
452 2 0.185961 15.6205 51.5826 49.3826
453 2 0.201049 15.5989 52.9689 48.2664
454 2 0.20553 14.8911 53.1242 49.8921
455 2 0.176295 16.6558 52.9956 49.6984
456 1 -0.453815 46.5474 50.7547 54.4905
457 2 0.178899 46.9506 50.9569 55.4827
458 2 0.184202 47.3671 50.6482 53.7799
459 2 0.184377 45.966 49.833 54.5154
460 2 0.182879 45.9057 51.5808 54.1838
461 1 -0.447633 33.5074 52.6211 35.3931
462 2 0.221694 32.7246 53.3341 35.652
463 2 0.171096 33.1023 51.865 34.7206
464 2 0.179714 34.3267 53.1444 34.9001
465 2 0.182052 33.8761 52.1411 36.2996
466 1 -0.454824 8.8749 11.6112 14.2136
467 2 0.193549 7.9543 11.7275 14.7855
468 2 0.172976 8.64639 11.6364 13.1481
469 2 0.17557 9.55944 12.4235 14.4578
470 2 0.191086 9.33946 10.6572 14.463
471 1 -0.452355 18.9209 49.9293 39.0231
472 2 0.200249 18.9569 50.172 40.0851
473 2 0.171175 18.1648 49.1633 38.8509
474 2 0.215036 18.6678 50.824 38.4543
475 2 0.160694 19.8941 49.5579 38.7021
476 1 -0.448167 44.9746 39.3164 15.6208
477 2 0.219527 43.9316 39.6172 15.7198
478 2 0.174193 45.4849 39.9945 14.9367
479 2 0.183596 45.4577 39.3537 16.5971
480 2 0.183352 45.0241 38.3003 15.2295
481 1 -0.459499 40.1203 11.4777 45.7518
482 2 0.158018 39.3201 12.1827 45.5267
483 2 0.172827 40.1155 10.6751 45.0142
484 2 0.179482 41.0795 11.9945 45.7202
485 2 0.199356 39.9661 11.0583 46.746
486 1 -0.454487 32.5039 47.3311 9.21993
487 2 0.190184 33.0477 46.5358 9.72983
488 2 0.184359 32.5821 47.1912 8.14177
489 2 0.178763 31.4551 47.3012 9.51507
490 2 0.202506 32.9309 48.2961 9.49303
491 1 -0.452043 20.6398 36.4452 27.7355
492 2 0.192962 19.7591 35.8288 27.9155
493 2 0.222469 20.6745 37.2519 28.4677
494 2 0.189102 21.5369 35.8327 27.827
495 2 0.187245 20.589 36.8673 26.7319
496 1 -0.456476 6.32261 53.1457 40.68
497 2 0.181184 6.36795 52.4627 39.8317
498 2 0.181166 5.30715 53.5276 40.7851
499 2 0.178662 6.60724 52.6155 41.5889
500 2 0.182127 7.00811 53.9768 40.5144
501 1 -0.445762 28.4643 47.9944 27.4036
502 2 0.2255 28.5504 47.0505 27.9419
503 2 0.173732 28.5319 47.8088 26.3317
504 2 0.167751 27.5041 48.4569 27.6324
505 2 0.172723 29.2707 48.6614 27.7084
506 1 -0.453644 15.9753 18.5553 13.6485
507 2 0.174302 15.1379 18.521 12.9515
508 2 0.18007 16.8073 17.9778 13.2456
509 2 0.180187 16.2868 19.59 13.7915
510 2 0.197856 15.6691 18.1325 14.6053
511 1 -0.454924 41.9385 51.1264 18.6492
512 2 0.179619 41.0466 51.6609 18.9761
513 2 0.188973 41.6983 50.0731 18.5042
514 2 0.178766 42.2927 51.5509 17.7099
515 2 0.214944 42.7166 51.2206 19.4068
516 1 -0.457614 48.2656 48.3533 5.28612
517 2 0.179994 47.2167 48.0611 5.33606
518 2 0.182952 48.3404 49.4407 5.29085
519 2 0.176835 48.7969 47.9488 6.14764
520 2 0.181496 48.7084 47.9626 4.36993
521 1 -0.444171 8.66095 18.2463 45.6321
522 2 0.239061 7.95923 18.4368 46.4442
523 2 0.194277 8.11226 17.9344 44.7435
524 2 0.197261 9.21941 19.1565 45.4135
525 2 0.18403 9.3529 17.4576 45.9274
526 1 -0.448445 20.9945 7.0861 24.61
527 2 0.197273 20.7154 7.99345 24.0744
528 2 0.237338 20.3701 6.25863 24.2731
529 2 0.179533 22.0413 6.85518 24.4127
530 2 0.184617 20.8513 7.23716 25.68
531 1 -0.453695 52.6788 33.9704 37.3557
532 2 0.181006 52.793 34.8941 37.9231
533 2 0.170225 53.0585 34.1158 36.3444
534 2 0.187603 53.2396 33.1729 37.8432
535 2 0.205593 51.6241 33.6987 37.3123
536 1 -0.449177 34.4642 45.1389 32.5235
537 2 0.183609 35.2023 45.6658 31.9187
538 2 0.228084 34.5673 44.0649 32.3685
539 2 0.18104 34.6247 45.3711 33.5764
540 2 0.176415 33.4627 45.4539 32.2306
541 1 -0.451955 13.2968 35.9583 45.848
542 2 0.225765 13.1893 37.0422 45.889
543 2 0.191481 13.7273 35.6719 44.8885
544 2 0.170794 13.9523 35.6274 46.6536
545 2 0.185364 12.3182 35.4917 45.961
546 1 -0.452888 25.1509 18.5023 23.614
547 2 0.201134 26.0153 18.538 24.277
548 2 0.188316 25.1593 17.566 23.056
549 2 0.169839 24.237 18.5649 24.2049
550 2 0.204178 25.1918 19.3403 22.9182
551 1 -0.458293 10.3513 45.8943 51.193
552 2 0.161476 11.1689 45.1736 51.2038
553 2 0.185604 10.2085 46.2667 50.1786
554 2 0.187092 9.43609 45.4107 51.5346
555 2 0.186165 10.5915 46.7263 51.855
556 1 -0.456622 21.621 14.6247 28.4766
557 2 0.199546 21.0968 15.061 29.3269
558 2 0.179813 22.6898 14.59 28.6876
559 2 0.153766 21.2521 13.614 28.302
560 2 0.175262 21.4452 15.2339 27.59
561 1 -0.451951 29.3515 31.2017 42.2751
562 2 0.195173 30.1076 31.7455 42.8413
563 2 0.187106 28.887 31.8722 41.552
564 2 0.189227 29.8197 30.3691 41.75
565 2 0.155495 28.5916 30.8201 42.957
566 1 -0.452482 54.1047 42.5361 10.8172
567 2 0.165436 53.347 41.7918 11.0623
568 2 0.199064 53.8883 43.4632 11.348
569 2 0.182749 55.0861 42.1673 11.1154
570 2 0.180842 54.0973 42.7221 9.74323
571 1 -0.457127 5.63607 48.5635 13.1155
572 2 0.190397 6.70837 48.5152 13.3051
573 2 0.180468 5.27569 47.5798 12.8145
574 2 0.180819 5.12037 48.8773 14.0231
575 2 0.184656 5.43986 49.2816 12.3193
576 1 -0.444978 13.2699 11.9559 19.2267
577 2 0.224997 14.2628 11.5408 19.0537
578 2 0.192068 12.7572 12.0812 18.273
579 2 0.215915 12.698 11.278 19.8604
580 2 0.198043 13.3616 12.9237 19.7198
581 1 -0.460753 28.2399 22.8255 34.3416
582 2 0.180011 27.9075 23.7224 34.8642
583 2 0.167378 28.2416 23.0105 33.2674
584 2 0.186397 29.2475 22.5675 34.6675
585 2 0.182276 27.5628 22.0016 34.5673
586 1 -0.457184 42.759 17.7919 25.2274
587 2 0.202551 42.5616 17.3784 26.2164
588 2 0.198458 41.882 18.3381 24.8803
589 2 0.182971 43.6114 18.4692 25.2803
590 2 0.185136 42.9811 16.9819 24.5327
591 1 -0.452991 17.6558 11.9762 26.8941
592 2 0.214741 16.9896 12.8323 26.7879
593 2 0.151286 18.6261 12.3139 27.2582
594 2 0.225083 17.2276 11.2684 27.6038
595 2 0.188496 17.78 11.4902 25.9263
596 1 -0.458431 50.9104 35.5806 8.35258
597 2 0.170315 51.0227 36.5707 7.91082
598 2 0.175438 51.7822 35.3558 8.967
599 2 0.161215 50.0138 35.5588 8.97214
600 2 0.185933 50.8227 34.8371 7.56036
601 3 -0.0719118 41.4595 39.3785 54.933
602 3 -0.0623501 42.2609 38.4834 54.7897
603 3 -0.0821066 17.8831 28.0703 52.0331
604 3 -0.0507252 18.7211 27.2235 52.2448
605 3 -0.0974176 25.5093 24.2145 43.1362
606 3 -0.0469727 25.0798 23.2621 42.5257
607 3 -0.041517 26.9963 11.5038 8.09637
608 3 -0.0712401 26.2841 12.478 8.00735
609 3 -0.0595092 44.9431 16.8017 17.1866
610 3 -0.08988 45.2905 16.2089 16.1907
611 3 -0.084609 23.9118 20.6111 36.9707
612 3 -0.0647826 23.5063 21.7078 36.6594
613 3 -0.0704758 43.0212 20.3463 37.0202
614 3 -0.0402639 42.6233 19.2902 36.5839
615 3 -0.0425651 17.887 21.9939 35.8591
616 3 -0.0926248 17.4548 22.8276 35.0959
617 3 -0.0936691 8.48259 53.2385 15.3063
618 3 -0.0629743 9.52034 53.7339 14.9299
619 3 -0.128384 18.8012 35.0981 54.2889
620 3 -0.0535525 19.8583 35.4312 54.7745
621 3 -0.0685195 21.8282 4.80509 6.65511
622 3 -0.0438614 20.9627 5.62331 6.86856
623 3 -0.0394571 22.167 8.25454 6.34239
624 3 -0.0585718 21.1602 8.79258 6.74359
625 3 -0.0758649 40.5088 4.91927 17.0211
626 3 -0.0432954 40.3364 6.02526 17.4806
627 3 -0.0601447 10.1105 20.6215 6.68678
628 3 -0.143852 9.20973 21.1836 6.10648
629 3 -0.107583 36.9078 10.5457 12.6124
630 3 -0.0848537 36.4137 9.49859 12.9639
631 3 -0.0405969 9.25056 44.2083 38.6997
632 3 -0.0512027 9.40339 45.3847 38.9381
633 3 -0.100983 45.9674 37.6138 31.0834
634 3 -0.0904278 45.7458 36.4589 30.7984
635 3 -0.116872 11.8503 39.3487 45.2666
636 3 -0.064434 11.0578 39.9585 45.9478
637 3 -0.0693205 6.66385 48.1624 53.8242
638 3 -0.113673 6.86637 46.9756 53.9455
639 3 -0.107891 20.5341 29.9363 5.9199
640 3 -0.081725 20.6003 30.5791 4.89692
641 3 -0.0555274 29.6067 48.7294 49.9396
642 3 -0.0766068 30.6504 48.1559 49.7252
643 3 -0.0597992 29.7389 9.44192 7.21559
644 3 -0.035341 30.6608 10.2096 7.37292
645 3 -0.0501217 30.5861 29.6474 27.0024
646 3 -0.0575476 30.5394 30.7631 26.5364
647 3 -0.134125 35.7477 41.8288 34.0452
648 3 -0.029399 36.6276 41.1542 33.5606
649 3 -0.0782048 39.4923 14.3228 28.3994
650 3 -0.0935424 40.3562 15.1111 28.7098
651 3 -0.0701136 18.2 6.02517 32.1834
652 3 -0.0238193 17.0653 5.80844 31.8234
653 3 -0.0693961 53.3381 30.0123 28.6202
654 3 -0.0752859 52.6701 29.287 27.9188
655 3 -0.071292 19.2259 40.9612 22.2881
656 3 -0.0718645 19.5048 41.0353 21.113
657 3 -0.0348127 45.8263 31.8135 23.6823
658 3 -0.0615452 44.8992 32.371 24.2244
659 3 -0.0817267 36.0754 10.4578 38.6282
660 3 -0.0635374 36.2383 9.30117 38.3125
661 3 -0.0682332 45.2901 14.5012 53.4984
662 3 -0.0507206 45.371 13.2941 53.5172
663 3 -0.101832 35.8452 30.8931 14.498
664 3 -0.0661113 36.3456 31.2376 15.5445
665 3 -0.0806924 11.6773 5.22761 18.2384
666 3 -0.0300275 12.5096 6.09849 18.1249
667 3 -0.0931176 25.8161 26.9418 15.0659
668 3 -0.0637424 26.4133 25.9811 15.4954
669 3 -0.0750992 27.9406 50.7587 17.4735
670 3 -0.0784548 28.4008 49.6838 17.162
671 3 -0.0645291 54.8172 5.93007 20.1506
672 3 -0.0370005 54.256 6.98046 19.9366
673 3 -0.106187 15.4339 9.15528 28.065
674 3 -0.107966 15.9025 9.48379 29.1311
675 3 -0.0530428 46.0035 44.8781 33.3026
676 3 -0.0982073 45.0921 45.569 32.9074
677 3 -0.0821862 30.8689 10.7148 33.6881
678 3 -0.069453 30.2198 10.6995 32.667
679 3 -0.0655447 54.4124 40.9224 26.7601
680 3 -0.0689215 54.7742 41.071 25.6151
681 3 -0.0672549 36.5745 41.197 31.185
682 3 -0.0758109 37.3882 40.6869 30.449
683 3 -0.055639 19.0215 51.4411 20.5011
684 3 -0.0786789 19.4464 50.496 21.1259
685 3 -0.0648441 52.1755 6.32409 54.1929
686 3 -0.0660936 52.6204 6.67943 55.2605
687 3 -0.0855059 46.39 52.152 21.0112
688 3 -0.0430503 45.8462 51.5017 21.8746
689 3 -0.0539217 53.2264 11.1889 49.0095
690 3 -0.0658741 52.8439 10.695 47.9733
691 3 -0.0935613 18.8733 49.7837 9.26092
692 3 -0.0973572 20.0549 49.6978 9.015
693 3 -0.0384578 12.1765 30.9739 19.3626
694 3 -0.0342253 12.5698 30.3695 20.3343
695 3 -0.0670779 7.538 34.4358 54.5873
696 3 -0.0763274 8.36202 34.7996 53.7793
697 3 -0.0419603 48.3081 33.9171 49.8566
698 3 -0.0842216 49.0427 34.2882 48.9697
699 3 -0.0461454 40.9511 14.2802 18.3996
700 3 -0.0247662 40.6013 15.4179 18.1815
701 3 -0.0636761 51.1414 5.79854 14.2794
702 3 -0.0393385 52.0029 5.47329 15.0644
703 3 -0.0654442 30.6404 42.7074 37.2302
704 3 -0.105098 30.5587 43.3112 38.2757
705 3 -0.0708227 34.3726 52.4566 21.31
706 3 -0.0829498 34.34 52.6766 22.4994
707 3 -0.121261 40.8559 28.7987 45.7434
708 3 -0.0796627 39.7585 28.2899 45.7132
709 3 -0.0566057 9.81138 44.6974 8.39078
710 3 -0.0747671 8.8918 43.9341 8.20166
711 3 -0.0259289 11.9982 49.2905 28.9808
712 3 -0.130312 10.7885 49.2769 29.0042
713 3 -0.077922 24.8741 37.0399 50.4564
714 3 -0.0702049 25.9095 36.9842 51.0801
715 3 -0.0527997 29.6457 55.0299 9.11092
716 3 -0.0621062 29.5471 53.9184 9.57886
717 3 -0.0445785 18.5872 32.4678 20.9233
718 3 -0.0466039 17.5846 33.1256 21.0855
719 3 -0.037203 8.82789 41.0437 19.8319
720 3 -0.0632566 9.5592 40.1453 19.4823
721 3 -0.0450538 17.3579 4.6399 24.4825
722 3 -0.162614 18.255 5.42577 24.2781
723 3 -0.161745 40.2788 51.4189 53.2328
724 3 -0.0939152 39.9784 50.2875 53.5392
725 3 -0.0760522 22.8944 10.4753 41.0701
726 3 -0.0940035 22.9394 9.42907 41.6763
727 3 -0.0568466 33.3454 31.2437 52.8573
728 3 -0.0930242 32.6331 30.9303 51.9307
729 3 -0.101156 51.1031 13.7799 5.40158
730 3 -0.0725982 50.4609 14.8011 5.49628
731 3 -0.0682776 41.5993 6.938 9.02298
732 3 -0.100915 41.7148 7.32816 10.1625
733 3 -0.0774345 41.2403 37.8011 36.0017
734 3 -0.0556474 42.3936 37.9398 35.663
735 3 -0.064458 10.8986 32.1446 7.25045
736 3 -0.0430623 11.4234 31.1778 7.75439
737 3 -0.0625693 32.0245 40.721 51.4011
738 3 -0.0687478 32.6537 41.1441 52.3441
739 3 -0.0635056 39.878 53.7424 5.51911
740 3 -0.0729237 40.8625 53.5086 6.1825
741 3 -0.0645748 31.5492 35.729 54.9148
742 3 -0.0525688 30.7145 35.7137 54.0389
743 3 -0.0537596 28.3503 25.7435 22.6842
744 3 -0.0381872 28.3228 25.5685 23.8811
745 3 -0.0305981 12.5834 27.5723 19.823
746 3 -0.06531 12.2633 26.4501 19.5031
747 3 -0.127471 36.2663 49.9712 23.458
748 3 -0.0441761 35.6479 50.2579 22.4582
749 3 -0.0407888 52.8701 11.6419 52.7513
750 3 -0.0725959 53.107 12.2205 53.7872
751 3 -0.0745444 18.659 30.1568 39.3648
752 3 -0.0554237 17.7523 30.7089 38.7843
753 3 -0.0963803 33.2399 35.7796 27.5352
754 3 -0.11051 34.3799 35.9408 27.1632
755 3 -0.0967617 42.0948 23.2054 8.8101
756 3 -0.0983791 42.4432 23.2126 9.96883
757 3 -0.0647603 49.0268 7.7401 44.0631
758 3 -0.0404934 49.7487 7.97481 43.1209
759 3 -0.127839 21.3348 28.9022 31.3015
760 3 -0.0706503 20.8731 29.9261 31.7516
761 3 -0.08076 24.1523 38.7218 22.8544
762 3 -0.0497213 24.2554 39.0123 21.6843
763 3 -0.0394304 24.1403 8.22714 37.4838