LAMMPS (29 Aug 2024)
OMP_NUM_THREADS environment is not set. Defaulting to 1 thread. (src/comm.cpp:98)
  using 1 OpenMP thread(s) per MPI task
read_restart restarts/start.rst
Reading restart file ...
  restart file = 29 Aug 2024, LAMMPS = 29 Aug 2024
  restoring atom style charge from restart
  orthogonal box = (0 0 0) to (60 60 60)
  1 by 1 by 1 MPI processor grid
  pair style reaxff stores no restart info
  1080 atoms
  read_restart CPU = 0.001 seconds
pair_style      reaxff NULL
pair_coeff * * ./ffield.reax.cho C H O
Reading potential file ./ffield.reax.cho with DATE: 2010-02-19
unfix q
ERROR: Could not find fix ID q to delete (src/modify.cpp:1063)
Last command: unfix q
fix q all qeq/reaxff 1 0.0 10.0 1.0e-6 reaxff maxiter 200
unfix int
ERROR: Could not find fix ID int to delete (src/modify.cpp:1063)
Last command: unfix int
unfix lang
ERROR: Could not find fix ID lang to delete (src/modify.cpp:1063)
Last command: unfix lang
fix int all nve
fix lang all langevin 1500.0 1500.0 100.0 90421
neighbor 2.0 bin
neigh_modify every 1 delay 0 check yes
reset_timestep 0
thermo_style custom step temp press pe ke etotal
thermo 500
variable t equal step*dt
fix snp all print 100 "${t}" file dumps_fixed/snap_times.fs screen no
dump dfix all custom 500 dumps_fixed/fixed_*.dump id type q x y z
dump_modify dfix sort id
timestep 0.1
run 500000 post no pre no

CITE-CITE-CITE-CITE-CITE-CITE-CITE-CITE-CITE-CITE-CITE-CITE-CITE

Your simulation uses code contributions which should be cited:

- pair reaxff command: doi:10.1016/j.parco.2011.08.005

@Article{Aktulga12,
 author = {H. M. Aktulga and J. C. Fogarty and S. A. Pandit and A. Y. Grama},
 title = {Parallel Reactive Molecular Dynamics: {N}umerical Methods and Algorithmic Techniques},
 journal = {Parallel Computing},
 year =    2012,
 volume =  38,
 number =  {4--5},
 pages =   {245--259}
}

- fix qeq/reaxff command: doi:10.1016/j.parco.2011.08.005

@Article{Aktulga12,
 author = {H. M. Aktulga and J. C. Fogarty and S. A. Pandit and A. Y. Grama},
 title = {Parallel Reactive Molecular Dynamics: {N}umerical Methods and Algorithmic Techniques},
 journal = {Parallel Computing},
 year =    2012,
 volume =  38,
 pages =   {245--259}
}

CITE-CITE-CITE-CITE-CITE-CITE-CITE-CITE-CITE-CITE-CITE-CITE-CITE

Neighbor list info ...
  update: every = 1 steps, delay = 0 steps, check = yes
  max neighbors/atom: 2000, page size: 100000
  master list distance cutoff = 12
  ghost atom cutoff = 12
  binsize = 6, bins = 10 10 10
  2 neighbor lists, perpetual/occasional/extra = 2 0 0
  (1) pair reaxff, perpetual
      attributes: half, newton off, ghost
      pair build: half/bin/ghost/newtoff
      stencil: full/ghost/bin/3d
      bin: standard
  (2) fix qeq/reaxff, perpetual, copy from (1)
      attributes: half, newton off
      pair build: copy
      stencil: none
      bin: none
Per MPI rank memory allocation (min/avg/max) = 35.87 | 35.87 | 35.87 Mbytes
   Step          Temp          Press          PotEng         KinEng         TotEng    
         0   1547.0252      377.20251     -80775.964      4975.688      -75800.276    
       500   1548.4289      247.65635     -80747.402      4980.2027     -75767.2      
      1000   1473.5091      139.43708     -80858.475      4739.2384     -76119.236    
      1500   1466.4543      204.80216     -80888.746      4716.5483     -76172.198    
      2000   1513.9125      327.07521     -80899.498      4869.1879     -76030.31     
      2500   1511.8057      333.88578     -80908.045      4862.4117     -76045.633    
      3000   1518.877       506.70293     -80879.019      4885.155      -75993.864    
      3500   1485.4429      337.80303     -80919.29       4777.6212     -76141.669    
      4000   1469.5091      144.92432     -80968.415      4726.3734     -76242.041    
      4500   1513.8452      226.5343      -80943.064      4868.9713     -76074.092    
      5000   1529.9172      372.4629      -80985.418      4920.6637     -76064.754    
      5500   1541.497       308.81413     -80918.833      4957.9076     -75960.925    
      6000   1552.7204      415.13474     -80830.334      4994.0053     -75836.329    
      6500   1593.3343      318.59775     -80764.427      5124.6316     -75639.795    
      7000   1597.3152      639.61125     -80926.904      5137.4354     -75789.469    
      7500   1510.2887      105.40986     -80941.185      4857.5324     -76083.653    
      8000   1490.87        31.7395       -80994.559      4795.0764     -76199.482    
      8500   1505.2884      593.17803     -80944.03       4841.4502     -76102.579    
      9000   1461.485       300.0734      -80835.86       4700.5654     -76135.294    
      9500   1495.453       521.5042      -80865.176      4809.8167     -76055.359    
     10000   1453.2258      320.80804     -80761.014      4674.0016     -76087.012    
     10500   1542.6182      94.474528     -80648.983      4961.5137     -75687.469    
     11000   1564.7417      655.72584     -80924.567      5032.6693     -75891.897    
     11500   1522.7385      192.60308     -80890.829      4897.5749     -75993.254    
     12000   1561.2399      499.72113     -80834.343      5021.4065     -75812.937    
     12500   1497.9911      54.528922     -80843.416      4817.98       -76025.436    
     13000   1504.3932      384.21357     -80883.471      4838.5708     -76044.9      
     13500   1516.3007      201.35776     -80903.369      4876.8688     -76026.5      
     14000   1528.9884      417.42025     -80955.415      4917.6762     -76037.739    
     14500   1544.2608      398.31958     -80925.959      4966.7969     -75959.162    
     15000   1541.3136      300.68312     -80802.36       4957.3176     -75845.042    
     15500   1589.8763      624.27399     -80922.149      5113.5097     -75808.639    
     16000   1521.5451      154.64171     -80913.298      4893.7363     -76019.562    
     16500   1585.713       420.19891     -80936.397      5100.1193     -75836.277    
     17000   1505.8885      441.54946     -80849.44       4843.3801     -76006.06     
     17500   1483.8569      335.05911     -80999.764      4772.52       -76227.244    
     18000   1484.7949      497.46504     -80993.17       4775.537      -76217.633    
     18500   1503.734       127.7058      -81037.402      4836.4507     -76200.951    
     19000   1486.2231      492.06338     -81056.443      4780.1306     -76276.312    
     19500   1445.9176      273.49832     -81038.277      4650.4961     -76387.78     
     20000   1500.7738      509.8566      -81051.383      4826.9299     -76224.453    
     20500   1452.882       11.091097     -80936.379      4672.8956     -76263.483    
     21000   1490.2795      372.28156     -80923.004      4793.177      -76129.827    
     21500   1587.4738      694.93194     -80995.086      5105.7825     -75889.304    
     22000   1497.7115      195.76333     -80861.894      4817.0807     -76044.813    
     22500   1550.6696      69.77667      -80922.696      4987.4095     -75935.286    
     23000   1576.4102      583.06509     -81028.263      5070.1986     -75958.064    
     23500   1514.1269      84.742542     -80741.328      4869.8773     -75871.45     
     24000   1512.9437      78.393265     -80775.528      4866.0718     -75909.457    
     24500   1474.8898      291.8798      -80953.223      4743.6794     -76209.544    
     25000   1514.4377      509.9981      -80881.877      4870.8768     -76011.001    
     25500   1519.6784      93.572157     -81032.041      4887.7326     -76144.309    
     26000   1512.0823      243.17934     -80804.311      4863.3014     -75941.01     
     26500   1532.3866      218.09391     -80745.765      4928.6059     -75817.159    
     27000   1565.8597      598.46089     -80843.933      5036.2652     -75807.668    
     27500   1536.7735      253.81684     -80749.48       4942.7154     -75806.765    
     28000   1543.8201      565.9092      -80935.792      4965.3793     -75970.413    
     28500   1512.9607      403.83298     -80758.059      4866.1264     -75891.932    
     29000   1458.0154      73.790332     -80831.355      4689.4063     -76141.948    
     29500   1520.846       502.03133     -81017.837      4891.4879     -76126.349    
     30000   1486.313       673.82312     -81024.927      4780.4197     -76244.507    
     30500   1499.8555      558.17422     -81022.55       4823.9764     -76198.574    
     31000   1512.9166     -53.860272     -80961.689      4865.9845     -76095.704    
     31500   1548.9902      658.57792     -80972.441      4982.0079     -75990.433    
     32000   1525.5958      589.57672     -80927.851      4906.7645     -76021.086    
     32500   1471.8629      400.30014     -80841.681      4733.9438     -76107.737    
     33000   1467.36        311.86165     -80972.219      4719.4611     -76252.757    
     33500   1519.4402      334.49043     -80929.922      4886.9666     -76042.955    
     34000   1514.3885      621.29776     -80892.621      4870.7188     -76021.902    
     34500   1496.4708      88.011011     -80885.353      4813.0901     -76072.263    
     35000   1541.5055      720.69319     -81063.174      4957.935      -76105.239    
     35500   1465.5871      382.19233     -80982.507      4713.7591     -76268.748    
     36000   1451.2296      203.38851     -80890.098      4667.581      -76222.517    
     36500   1477.1071      153.79529     -80910.382      4750.8108     -76159.572    
     37000   1509.8723      165.80405     -80820.943      4856.1932     -75964.75     
     37500   1507.0113      222.89496     -80722.202      4846.9915     -75875.211    
     38000   1533.2667      376.6913      -80805.484      4931.4364     -75874.047    
     38500   1535.1378      46.919508     -80895.984      4937.4547     -75958.529    
     39000   1503.7573      403.88734     -80957.814      4836.5255     -76121.288    
     39500   1492.5571      222.6431      -80861.733      4800.5026     -76061.23     
     40000   1484.4037      333.92571     -80909.723      4774.2787     -76135.444    
     40500   1453.249       459.9         -81025.697      4674.0761     -76351.621    
     41000   1427.5168      357.12847     -80789.66       4591.3136     -76198.347    
     41500   1519.7908      601.2267      -80883.494      4888.094      -75995.4      
     42000   1527.5135      210.89046     -80899.825      4912.9326     -75986.892    
     42500   1526.977       432.80875     -80852.493      4911.2072     -75941.286    
     43000   1496.882       338.53974     -80835.301      4814.4128     -76020.888    
     43500   1496.6894      357.19515     -80808.971      4813.7932     -75995.178    
     44000   1470.9094      214.7242      -80743.012      4730.8773     -76012.135    
     44500   1574.5849      459.02575     -81074.296      5064.328      -76009.968    
     45000   1555.0082      22.918624     -80977.624      5001.3636     -75976.26     
     45500   1509.8752      525.71315     -80839.388      4856.2026     -75983.186    
     46000   1470.4408      185.55514     -81013.961      4729.37       -76284.591    
     46500   1485.5323      376.47471     -80988.083      4777.9087     -76210.174    
     47000   1406.2274      375.7987      -80935.056      4522.8409     -76412.215    
     47500   1497.3672      147.70054     -81022.874      4815.9733     -76206.9      
     48000   1426.2979      298.61636     -80858.071      4587.3935     -76270.677    
     48500   1472.4035      379.35743     -80800.641      4735.6825     -76064.958    
     49000   1496.1097     -10.533814     -80811.916      4811.9286     -75999.987    
     49500   1477.2362      110.67915     -80901.821      4751.226      -76150.595    
     50000   1504.848       84.074427     -80950.225      4840.0335     -76110.192    
     50500   1464.9888      388.61449     -80814.288      4711.8348     -76102.454    
     51000   1461.976       3.0217285     -80895.478      4702.1448     -76193.333    
     51500   1489.4913      587.514       -80912.032      4790.642      -76121.39     
     52000   1473.534      -197.7266      -80854.869      4739.3185     -76115.55     
     52500   1495.145       305.35384     -80717.8        4808.8261     -75908.974    
     53000   1525.6774      591.63701     -80724.318      4907.027      -75817.291    
     53500   1542.8805      120.68384     -80683.8        4962.3574     -75721.443    
     54000   1528.3228      335.95226     -80814.528      4915.5355     -75898.992    
     54500   1624.0518      338.21768     -80795.08       5223.4281     -75571.652    
     55000   1587.3285      216.74143     -80804.513      5105.3153     -75699.198    
     55500   1523.7729      2.5788041     -80880.443      4900.9016     -75979.542    
     56000   1540.448       560.43984     -80886.367      4954.5338     -75931.833    
     56500   1504.193       85.383671     -80790.113      4837.9271     -75952.185    
     57000   1480.4261      476.6539      -80758.659      4761.4858     -75997.173    
     57500   1503.006       256.63591     -80877.652      4834.1092     -76043.543    
     58000   1525.4175      138.3727      -80939.784      4906.1911     -76033.593    
     58500   1455.2543      668.5998      -80831.619      4680.5257     -76151.094    
     59000   1488.3919      686.77644     -80842.452      4787.1061     -76055.346    
     59500   1465.2435      133.58485     -80913.149      4712.6541     -76200.495    
     60000   1515.9887      327.77505     -80708.776      4875.8655     -75832.91     
     60500   1446.4613      142.43905     -80672.456      4652.2449     -76020.211    
     61000   1491.7736      72.533211     -80759.717      4797.9825     -75961.735    
     61500   1504.7359     -89.436601     -80727.438      4839.6731     -75887.765    
     62000   1529.2551      241.65742     -80849.911      4918.5342     -75931.376    
     62500   1460.841       301.30032     -80779.507      4698.4943     -76081.013    
     63000   1458.7359      175.01955     -80808.06       4691.7237     -76116.336    
     63500   1474.429       421.86808     -80734.328      4742.1972     -75992.131    
     64000   1552.9584     -13.674098     -80757.32       4994.7709     -75762.549    
     64500   1514.4849      414.62297     -80755.956      4871.0288     -75884.928    
     65000   1537.533       420.11232     -80841.961      4945.1581     -75896.803    
     65500   1496.2496      329.6133      -80730.539      4812.3786     -75918.161    
     66000   1463.9461      335.42788     -80728.416      4708.4812     -76019.935    
     66500   1495.9173      258.44145     -80809.718      4811.3098     -75998.408    
     67000   1480.334       33.839649     -80719.809      4761.1893     -75958.62     
     67500   1502.5781      596.67815     -80718.093      4832.733      -75885.36     
     68000   1575.4552      491.46588     -80859.676      5067.1272     -75792.548    
     68500   1559.003       164.4249      -80803.682      5014.2119     -75789.47     
     69000   1505.3529      328.32602     -80955.71       4841.6574     -76114.052    
     69500   1516.0541      652.60538     -80957.622      4876.0756     -76081.546    
     70000   1431.0607     -36.237563     -80834.967      4602.7119     -76232.255    
     70500   1485.9756      457.04479     -81007.216      4779.3346     -76227.882    
     71000   1484.3494      256.0423      -80831.146      4774.104      -76057.042    
     71500   1525.6203      403.45566     -80846.28       4906.8434     -75939.437    
     72000   1494.5345      6.9590905     -80899.37       4806.8625     -76092.508    
     72500   1471.6726      208.96975     -80847.338      4733.332      -76114.006    
     73000   1507.6712      293.79258     -81008.656      4849.114      -76159.542    
     73500   1506.7649      405.01527     -81032.511      4846.1991     -76186.312    
     74000   1443.5398      222.08676     -81017.833      4642.8486     -76374.985    
     74500   1441.9472      12.674732     -80863.278      4637.7261     -76225.552    
     75000   1516.7785      616.00436     -80842.175      4878.4056     -75963.769    
     75500   1542.2658      303.69835     -80912.942      4960.3803     -75952.562    
     76000   1530.0046      449.17645     -80905.319      4920.9448     -75984.375    
     76500   1572.3418      234.64614     -80768.051      5057.1136     -75710.938    
     77000   1517.1093      194.47592     -80792.498      4879.4697     -75913.028    
     77500   1503.9545      111.20814     -80749.764      4837.1601     -75912.604    
     78000   1482.3234      451.31865     -80766.61       4767.5879     -75999.022    
     78500   1522.3056      210.21449     -80866.234      4896.1824     -75970.051    
     79000   1539.5944      456.36387     -80915.725      4951.7882     -75963.937    
     79500   1525.3219      170.3641      -80954.898      4905.8836     -76049.015    
     80000   1564.4881      70.099931     -80949.627      5031.8538     -75917.774    
     80500   1579.055       261.70624     -80924.77       5078.7052     -75846.065    
     81000   1584.1799      296.12045     -80828.031      5095.1883     -75732.842    
     81500   1533.313       149.97252     -80754.385      4931.5855     -75822.799    
     82000   1517.0944      464.41175     -80922.782      4879.4217     -76043.36     
     82500   1505.2929      170.79222     -80918.743      4841.4646     -76077.279    
     83000   1528.3084      568.84671     -81105.199      4915.4893     -76189.71     
     83500   1467.2553      207.7487      -81072.861      4719.1244     -76353.737    
     84000   1444.7838      145.96154     -81070.531      4646.8496     -76423.682    
     84500   1391.6956      248.31928     -80962.905      4476.1022     -76486.803    
     85000   1382.5367      260.89736     -80897.32       4446.6446     -76450.676    
     85500   1425.4195      411.81875     -80977.25       4584.5683     -76392.682    
     86000   1455.7615      236.51028     -80941.979      4682.1571     -76259.822    
     86500   1426.703       299.37975     -80902.242      4588.6965     -76313.546    
     87000   1489.561       353.48576     -80883.293      4790.8661     -76092.427    
     87500   1529.137       192.91052     -81004.843      4918.1542     -76086.689    
     88000   1502.8629     -18.733178     -80928.411      4833.6491     -76094.762    
     88500   1450.381       236.09198     -81011.498      4664.8519     -76346.646    
     89000   1492.772       64.727674     -80951.35       4801.1937     -76150.156    
     89500   1487.8858      288.99449     -80892.077      4785.4782     -76106.599    
     90000   1471.8055      210.19198     -80985.581      4733.7594     -76251.822    
     90500   1479.5933      393.80912     -81010.351      4758.807      -76251.544    
     91000   1456.5191      132.62161     -80891.564      4684.5936     -76206.971    
     91500   1461.0505      316.15871     -80842.298      4699.1679     -76143.13     
     92000   1594.2043      385.6507      -80686.499      5127.4298     -75559.069    
     92500   1558.4376      322.93439     -80838.375      5012.3935     -75825.982    
     93000   1543.8773      152.47971     -80819.956      4965.5634     -75854.392    
     93500   1519.976       644.44724     -80755.678      4888.6899     -75866.988    
     94000   1461.5642      205.63591     -80794.283      4700.8203     -76093.462    
     94500   1468.9052      251.14369     -80838.157      4724.4309     -76113.726    
     95000   1463.4753      56.43146      -80845.95       4706.9668     -76138.983    
     95500   1483.983       354.20628     -80895.156      4772.9256     -76122.231    
     96000   1490.7283      355.08403     -80828.39       4794.6204     -76033.769    
     96500   1539.4259     -25.97243      -80796.615      4951.2464     -75845.369    
     97000   1492.4767     -55.40037      -80855.484      4800.2439     -76055.24     
     97500   1533.335       368.5796      -80950.338      4931.6563     -76018.682    
     98000   1488.0013      299.58932     -80770.707      4785.8498     -75984.857    
     98500   1432.972       413.34084     -80763.567      4608.8594     -76154.707    
     99000   1537.9542      229.46381     -80791.332      4946.5129     -75844.819    
     99500   1552.6034      440.33306     -80917.809      4993.6289     -75924.18     
    100000   1556.2644      462.3496      -80859.864      5005.4039     -75854.46     
    100500   1457.3424      30.073951     -80897.817      4687.2417     -76210.575    
    101000   1516.964       223.15723     -80832.401      4879.0023     -75953.399    
    101500   1532.3628      493.23708     -80942.215      4928.5294     -76013.686    
    102000   1517.1402      177.10578     -80985.536      4879.5691     -76105.967    
    102500   1479.1978      318.30044     -81006.642      4757.535      -76249.107    
    103000   1510.383       172.22803     -81017.377      4857.8357     -76159.541    
    103500   1549.7507      447.65457     -80836.36       4984.4539     -75851.906    
    104000   1486.0122      4.4474633     -80817.322      4779.4521     -76037.87     
    104500   1487.7189      499.75705     -80890.374      4784.9414     -76105.433    
    105000   1475.4826      248.83346     -80806.596      4745.5859     -76061.01     
    105500   1498.0766      351.77684     -80853.892      4818.2547     -76035.638    
    106000   1498.0832      67.648584     -80892.759      4818.2762     -76074.483    
    106500   1462.2139      346.45408     -80931.485      4702.9099     -76228.575    
    107000   1482.201       303.96201     -80916.636      4767.1943     -76149.442    
    107500   1525.7442      388.9242      -80953.048      4907.2419     -76045.806    
    108000   1516.4525     -3.6183759     -81023.587      4877.3572     -76146.23     
    108500   1512.596       530.69841     -80881.248      4864.9537     -76016.295    
    109000   1483.6713      34.207365     -80784.064      4771.9232     -76012.141    
    109500   1545.3977      613.45631     -80964.346      4970.4536     -75993.892    
    110000   1483.2314      30.156588     -80873.642      4770.5083     -76103.133    
    110500   1515.4116      467.28572     -80836.772      4874.0093     -75962.762    
    111000   1497.8341      190.40895     -80828.431      4817.4749     -76010.956    
    111500   1478.6875      233.75492     -80716.523      4755.8938     -75960.629    
    112000   1511.7016      434.43089     -80863.566      4862.0769     -76001.489    
    112500   1568.5626      639.50896     -81010.201      5044.9586     -75965.242    
    113000   1436.461       163.98552     -80789.633      4620.081      -76169.552    
    113500   1510.2747      533.58195     -80906.244      4857.4874     -76048.756    
    114000   1541.9177      665.72469     -80795.396      4959.2608     -75836.136    
    114500   1519.056       387.32776     -80834.62       4885.7306     -75948.89     
    115000   1528.5443      53.226504     -80851.501      4916.2479     -75935.253    
    115500   1477.2031      530.80247     -80791.335      4751.1196     -76040.215    
    116000   1471.4789      246.8587      -81045.19       4732.7088     -76312.481    
    116500   1442.1831      180.58205     -80751.68       4638.485      -76113.195    
    117000   1552.788       704.73664     -80913.785      4994.2229     -75919.562    
    117500   1500.5181      316.95643     -80730.224      4826.1074     -75904.117    
    118000   1487.5071      177.25064     -80829.517      4784.2602     -76045.256    
    118500   1548.3684      541.55235     -80904.767      4980.008      -75924.759    
    119000   1535.3926      225.63779     -80842.374      4938.2741     -75904.1      
    119500   1481.9711      194.64421     -80830.422      4766.4548     -76063.967    
    120000   1506.2798      467.01124     -80902.442      4844.6389     -76057.803    
    120500   1472.2527      375.43813     -80838.976      4735.1977     -76103.778    
    121000   1489.8658      414.49391     -80916.311      4791.8464     -76124.464    
    121500   1502.0644      342.2311      -80991.522      4831.0808     -76160.441    
    122000   1499.6719      225.75755     -80949.616      4823.3859     -76126.23     
    122500   1493.4131      315.14873     -81001.533      4803.2555     -76198.278    
    123000   1464.5031      202.26949     -80871.387      4710.2724     -76161.115    
    123500   1499.2864      343.04247     -80880.056      4822.1459     -76057.91     
    124000   1500.4392      287.34395     -80764.025      4825.8538     -75938.172    
    124500   1531.2739      287.77408     -80863.894      4925.0272     -75938.867    
    125000   1531.6767      177.24666     -80935.867      4926.3227     -76009.544    
    125500   1466.1303      296.50685     -80977.24       4715.5062     -76261.734    
    126000   1437.1958      394.60456     -80898.081      4622.4443     -76275.637    
    126500   1474.3022      539.59527     -81035.217      4741.7894     -76293.428    
    127000   1466.6165      441.80743     -81022.954      4717.07       -76305.884    
    127500   1438.6981      510.83079     -80974.683      4627.2761     -76347.407    
    128000   1466.4277      81.219464     -81038.424      4716.4626     -76321.962    
    128500   1533.3175      574.79419     -81031.436      4931.6001     -76099.836    
    129000   1531.497       220.11475     -80869.494      4925.7446     -75943.75     
    129500   1602.016       65.573863     -80881.617      5152.5545     -75729.062    
    130000   1494.0944      78.694672     -80933.368      4805.4469     -76127.921    
    130500   1513.4397      734.56536     -80898.707      4867.6672     -76031.04     
    131000   1524.2245      153.5832      -81028.73       4902.354      -76126.376    
    131500   1463.3837      460.15091     -80952.937      4706.6724     -76246.264    
    132000   1476.5974      103.48469     -80882.013      4749.1715     -76132.841    
    132500   1503.5023      741.42626     -81071.124      4835.7056     -76235.419    
    133000   1471.5005      139.1435      -80935.226      4732.7782     -76202.448    
    133500   1484.6         143.58983     -80923.815      4774.9101     -76148.905    
    134000   1453.5409      516.71211     -80946.851      4675.0148     -76271.836    
    134500   1495.9349      269.25548     -80874.259      4811.3664     -76062.892    
    135000   1525.9445      437.63093     -80918.899      4907.8861     -76011.013    
    135500   1495.2907      309.25545     -80899.563      4809.2944     -76090.269    
    136000   1481.0778      140.75625     -80856.303      4763.5816     -76092.722    
    136500   1536.9512      283.6578      -80966.137      4943.2871     -76022.849    
    137000   1500.2802      225.82185     -80904.601      4825.3421     -76079.259    
    137500   1541.7928      331.92242     -80828.501      4958.8591     -75869.642    
    138000   1473.1875      167.10454     -80819.498      4738.2043     -76081.294    
    138500   1449.1907      265.33294     -80905.053      4661.0234     -76244.029    
    139000   1480.9469      306.45869     -80990.354      4763.1607     -76227.193    
    139500   1431.9323      165.50356     -80859.452      4605.5153     -76253.937    
    140000   1490.7343      338.73224     -80986.098      4794.64       -76191.458    
    140500   1520.4574      506.73967     -80945.008      4890.238      -76054.77     
    141000   1550.2635      103.91557     -80952.298      4986.1034     -75966.194    
    141500   1515.9918      318.99638     -80832.449      4875.8754     -75956.574    
    142000   1505.9901      496.99037     -80905.168      4843.7069     -76061.461    
    142500   1552.9896     -7.026831      -80725.38       4994.8711     -75730.509    
    143000   1574.5836      289.184       -80680.324      5064.3239     -75616        
    143500   1553.081       361.39479     -80820.87       4995.1652     -75825.705    
    144000   1508.1041      230.68329     -80737.545      4850.5063     -75887.039    
    144500   1471.2119      431.20362     -80873.097      4731.85       -76141.247    
    145000   1496.6589      387.88371     -80894.158      4813.6952     -76080.463    
    145500   1551.9219      386.46666     -80980.517      4991.437      -75989.08     
    146000   1539.3688      87.402383     -80903.094      4951.0626     -75952.031    
    146500   1559.2318      600.93147     -80890.834      5014.948      -75875.886    
    147000   1538.2759      600.41892     -80912.781      4947.5475     -75965.233    
    147500   1495.5861      520.55134     -80821.657      4810.2448     -76011.412    
    148000   1544.7631      393.86844     -80928.13       4968.4122     -75959.717    
    148500   1510.3831      383.42818     -80929.092      4857.8361     -76071.256    
    149000   1546.0545      262.70362     -80935.22       4972.5659     -75962.654    
    149500   1511.8741      420.98792     -80798.404      4862.6316     -75935.772    
    150000   1539.3796      121.31827     -80748.999      4951.0975     -75797.902    
    150500   1515.1341      165.68215     -80764.941      4873.1167     -75891.825    
    151000   1527.8372      317.62783     -80821.87       4913.9736     -75907.897    
    151500   1490.4674      298.04146     -80785.081      4793.7814     -75991.299    
    152000   1522.79        240.38923     -80819.095      4897.7404     -75921.355    
    152500   1500.7387      472.11646     -80918.557      4826.8171     -76091.74     
    153000   1515.6822     -30.419819     -80766.922      4874.8796     -75892.042    
    153500   1541.1075      547.97281     -80898.186      4956.6549     -75941.531    
    154000   1533.0483      277.1715      -80844.667      4930.7342     -75913.933    
    154500   1513.3883      400.16854     -80719.322      4867.5017     -75851.82     
    155000   1479.8165     -23.118832     -80874.21       4759.5249     -76114.685    
    155500   1470.4988      322.09215     -80859.02       4729.5564     -76129.463    
    156000   1533.3148      322.61276     -80772.435      4931.5914     -75840.843    
    156500   1492.2982      325.08396     -80738.684      4799.6698     -75939.014    
    157000   1441.52        129.82628     -80832.823      4636.3523     -76196.47     
    157500   1456.6297      258.28443     -80927.621      4684.9493     -76242.672    
    158000   1469.5334      113.45102     -80814.224      4726.4516     -76087.772    
    158500   1447.1479      272.03581     -80700.492      4654.4531     -76046.039    
    159000   1473.5489      565.77312     -80939.188      4739.3667     -76199.821    
    159500   1461.1091      324.26566     -80918.221      4699.3565     -76218.865    
    160000   1480.6161      205.94224     -80897.908      4762.0966     -76135.811    
    160500   1508.1835      550.81399     -80904.13       4850.7616     -76053.368    
    161000   1512.211       215.95384     -80812.363      4863.7153     -75948.648    
    161500   1504.0085      551.3312      -80914.275      4837.3335     -76076.942    
    162000   1466.0787      421.3927      -80824.872      4715.3401     -76109.532    
    162500   1513.7706      532.74625     -80875.916      4868.7315     -76007.184    
    163000   1482.7065      229.92109     -80908.901      4768.82       -76140.081    
    163500   1541.2146      847.98298     -80997.653      4956.9993     -76040.654    
    164000   1491.7832      9.6454432     -80894.755      4798.0134     -76096.742    
    164500   1479.6776      672.97438     -80925.058      4759.0782     -76165.98     
    165000   1470.3428      139.37886     -80870.57       4729.0549     -76141.515    
    165500   1513.0527      709.82656     -80908.458      4866.4223     -76042.036    
    166000   1482.3318      337.53733     -80761.206      4767.615      -75993.591    
    166500   1507.8373      452.15481     -80942.157      4849.6483     -76092.508    
    167000   1486.3121      284.60339     -80873.373      4780.4168     -76092.956    
    167500   1487.8169      282.6734      -80842.362      4785.2567     -76057.105    
    168000   1482.4839      427.63897     -81005.423      4768.1042     -76237.318    
    168500   1472.3407      421.21697     -80982.637      4735.4806     -76247.156    
    169000   1536.5921      532.12023     -80980.724      4942.132      -76038.592    
    169500   1414.4311      275.82729     -80878.657      4549.2263     -76329.431    
    170000   1480.6272      103.78092     -81054.115      4762.1325     -76291.983    
    170500   1528.4457      548.73941     -81006.075      4915.931      -76090.144    
    171000   1522.335       152.54076     -80879.525      4896.277      -75983.248    
    171500   1486.9227      677.05774     -80794.776      4782.3805     -76012.395    
    172000   1523.944       407.37053     -80943.699      4901.4521     -76042.247    
    172500   1531.3015      581.23744     -80945.819      4925.116      -76020.703    
    173000   1433.6624     -69.698093     -80764.912      4611.0798     -76153.832    
    173500   1516.5812      467.14578     -80879.638      4877.7711     -76001.867    
    174000   1466.1498      79.164231     -80811.508      4715.569      -76095.939    
    174500   1456.4826      533.56315     -80884.763      4684.4764     -76200.287    
    175000   1484.2394      174.43899     -80977.586      4773.7505     -76203.836    
    175500   1446.362       353.76969     -81060.808      4651.9256     -76408.882    
    176000   1442.9506      180.73125     -80860.552      4640.9535     -76219.599    
    176500   1501.5108      559.49791     -80999.983      4829.3003     -76170.682    
    177000   1422.7918     -22.937871     -80802.536      4576.1168     -76226.419    
    177500   1448.2348      236.59796     -80901.481      4657.9488     -76243.532    
    178000   1484.1999      247.02134     -80847.687      4773.6234     -76074.063    
    178500   1516.3394      455.18046     -80889.088      4876.9933     -76012.094    
    179000   1525.7757      577.09534     -80816.382      4907.3432     -75909.039    
    179500   1504.7972      95.342486     -80859.312      4839.8701     -76019.442    
    180000   1541.4435      356.70377     -80979.345      4957.7357     -76021.609    
    180500   1466.7763      51.171835     -80895.46       4717.5838     -76177.877    
    181000   1487.781       528.17266     -80934.995      4785.1411     -76149.854    
    181500   1579.4889      498.44631     -81009.948      5080.1007     -75929.847    
    182000   1509.0478      399.72215     -81031.53       4853.5413     -76177.989    
    182500   1539.1715      162.48918     -81023.938      4950.4281     -76073.51     
    183000   1536.3148      524.74011     -80868.218      4941.2403     -75926.978    
    183500   1508.3232     -160.42497     -80889.339      4851.2108     -76038.128    
    184000   1500.3041      469.39681     -80833.479      4825.4192     -76008.06     
    184500   1455.541      -67.314443     -80875.309      4681.4479     -76193.861    
    185000   1548.0472      379.60303     -80902.97       4978.975      -75923.994    
    185500   1517.546       338.73052     -80730.097      4880.874      -75849.223    
    186000   1518.4984      160.59899     -80658.987      4883.9375     -75775.049    
    186500   1517.0063      281.81952     -80789.312      4879.1382     -75910.174    
    187000   1496.6133      419.28962     -80897.371      4813.5483     -76083.823    
    187500   1521.1156      200.67399     -80741.193      4892.3551     -75848.838    
    188000   1438.9546      606.05785     -80799.03       4628.1012     -76170.929    
    188500   1511.2441     -116.17053     -81068.656      4860.6054     -76208.051    
    189000   1513.9999      784.88151     -80965.117      4869.4688     -76095.648    
    189500   1522.9644     -57.704667     -80857.97       4898.3014     -75959.669    
    190000   1482.188       40.659728     -80733.594      4767.1524     -75966.442    
    190500   1511.511       500.0572      -80849.503      4861.4639     -75988.039    
    191000   1491.8173      261.52677     -80825.769      4798.1232     -76027.646    
    191500   1436.454       99.552588     -80728.032      4620.0583     -76107.974    
    192000   1460.0858      405.1998      -80763.542      4696.0652     -76067.477    
    192500   1450.5428      463.93427     -80881.994      4665.3722     -76216.621    
    193000   1459.6792      394.24621     -80757.972      4694.7574     -76063.214    
    193500   1409.2265      625.99298     -80883.174      4532.4869     -76350.687    
    194000   1482.7092     -84.999603     -80921.611      4768.8288     -76152.782    
    194500   1440.0734      482.94446     -80894.524      4631.6994     -76262.824    
    195000   1446.7746      173.53436     -80740.454      4653.2526     -76087.202    
    195500   1522.3617      277.8002      -80927.149      4896.3628     -76030.786    
    196000   1488.0709      371.02381     -80832.711      4786.0735     -76046.637    
    196500   1522.0567      33.741709     -80924.28       4895.382      -76028.898    
    197000   1500.537       418.03297     -80816.284      4826.1684     -75990.116    
    197500   1519.0167      439.43159     -80932.436      4885.6042     -76046.832    
    198000   1467.9847      385.47483     -81021.506      4721.4706     -76300.035    
    198500   1497.7211      390.93238     -81081.307      4817.1115     -76264.196    
    199000   1463.4636      212.80326     -81013.272      4706.9292     -76306.343    
    199500   1479.7803      347.68359     -80947.172      4759.4085     -76187.763    
    200000   1488.7857      565.60741     -81016.506      4788.3726     -76228.134    
    200500   1495.7186      191.18827     -80822.851      4810.6709     -76012.18     
    201000   1490.386       252.95424     -80902.261      4793.5197     -76108.741    
    201500   1494.9159      232.77304     -80789.403      4808.089      -75981.314    
    202000   1497.6429      359.89401     -80912.253      4816.86       -76095.393    
    202500   1613.7365      465.76289     -80935.378      5190.251      -75745.127    
    203000   1571.4613      335.06352     -80791.14       5054.2816     -75736.859    
    203500   1501.9735      333.30926     -80973.186      4830.7885     -76142.398    
    204000   1431.7721      307.65239     -80934.978      4605.0002     -76329.977    
    204500   1419.8298      280.19677     -80956.378      4566.5901     -76389.788    
    205000   1491.3414      495.9346      -80943.659      4796.5924     -76147.066    
    205500   1465.237       471.02947     -80980.43       4712.633      -76267.797    
    206000   1468.7931      52.043963     -81030.083      4724.0706     -76306.013    
    206500   1476.6982      437.28401     -81019.954      4749.4955     -76270.458    
    207000   1462.297       188.9806      -80912.883      4703.177      -76209.706    
    207500   1492.8404      798.07802     -80831.145      4801.4138     -76029.732    
    208000   1500.0366      40.179149     -80868.03       4824.5589     -76043.471    
    208500   1476.4687      286.7023      -80855.275      4748.7576     -76106.517    
    209000   1485.637       128.58109     -80703.711      4778.2454     -75925.465    
    209500   1503.9686      484.07882     -80720.072      4837.2053     -75882.867    
    210000   1535.4079      176.60175     -80749.085      4938.3234     -75810.762    
    210500   1533.8559      467.36005     -80813.334      4933.3315     -75880.002    
    211000   1534.1436      108.34696     -80797.339      4934.257      -75863.082    
    211500   1534.2894      557.66244     -80863.131      4934.726      -75928.405    
    212000   1513.9157      284.94505     -80646.002      4869.1981     -75776.803    
    212500   1465.7397      132.81627     -80641.161      4714.2499     -75926.911    
    213000   1497.0017      454.10172     -80790.592      4814.7977     -75975.794    
    213500   1512.3995      333.00083     -80853.716      4864.3216     -75989.395    
    214000   1493.7344      350.29114     -80796.503      4804.2891     -75992.214    
    214500   1487.4603      351.82672     -80937.634      4784.1096     -76153.525    
    215000   1473.5988      311.77761     -80687.397      4739.5269     -75947.87     
    215500   1417.4314      316.9115      -80751.495      4558.8762     -76192.619    
    216000   1561.9041      412.90682     -80869.355      5023.5429     -75845.812    
    216500   1527.4167      438.90466     -80850.391      4912.6211     -75937.77     
    217000   1514.0845      270.31571     -80861.848      4869.741      -75992.107    
    217500   1465.6385      176.77863     -80658.969      4713.9243     -75945.044    
    218000   1515.4649      361.58024     -80851.156      4874.1808     -75976.976    
    218500   1484.6488      502.19104     -80784.948      4775.0671     -76009.881    
    219000   1449.3452      454.36166     -80752.364      4661.5203     -76090.844    
    219500   1479.7269      60.536476     -80686.46       4759.2368     -75927.223    
    220000   1530.4717     -184.02697     -80611.715      4922.4471     -75689.268    
    220500   1540.2064      702.83169     -80761.318      4953.7566     -75807.562    
    221000   1484.5567      21.6903       -80752.487      4774.771      -75977.716    
    221500   1467.1296      520.92638     -80717.024      4718.7201     -75998.304    
    222000   1433.5197      16.640728     -80669.239      4610.621      -76058.618    
    222500   1477.7808      517.90273     -80812.374      4752.9777     -76059.396    
    223000   1459.8904      598.93292     -80871.308      4695.4367     -76175.871    
    223500   1478.4273      357.53837     -80812.442      4755.0568     -76057.385    
    224000   1472.6106      370.54646     -80702.689      4736.3486     -75966.34     
    224500   1479.6261      317.98356     -80727.885      4758.9125     -75968.973    
    225000   1453.0635      440.35058     -80702.281      4673.4794     -76028.802    
    225500   1512.295       107.67314     -80857.736      4863.9853     -75993.751    
    226000   1509.3314      118.74996     -80750.333      4854.4535     -75895.88     
    226500   1503.8339      198.85535     -80654.255      4836.772      -75817.483    
    227000   1523.6818      550.82857     -80794.289      4900.6086     -75893.68     
    227500   1500.6707      267.51365     -80815.081      4826.5983     -75988.483    
    228000   1497.7458      279.56743     -80783.336      4817.1908     -75966.145    
    228500   1487.7802      502.64307     -80905.987      4785.1388     -76120.849    
    229000   1532.8984     -70.144748     -80873.514      4930.2521     -75943.262    
    229500   1563.2807      399.80118     -80970.542      5027.9706     -75942.572    
    230000   1456.4887      444.93639     -80860.757      4684.4958     -76176.261    
    230500   1508.6674      227.22304     -80766.606      4852.3181     -75914.288    
    231000   1506.2952      184.39185     -80794.607      4844.6881     -75949.919    
    231500   1609.6494      758.1788      -80945.177      5177.1059     -75768.071    
    232000   1519.2538     -102.83779     -80831.989      4886.3668     -75945.622    
    232500   1506.5032      431.56598     -80808.839      4845.3573     -75963.482    
    233000   1513.7611      601.3462      -80984.697      4868.7008     -76115.996    
    233500   1497.4965      192.18837     -80882.094      4816.3892     -76065.705    
    234000   1535.1312      364.71088     -80873.423      4937.4333     -75935.99     
    234500   1467.9062      146.54598     -80946.756      4721.2181     -76225.538    
    235000   1511.3766      221.79324     -80942.83       4861.0315     -76081.798    
    235500   1548.4924      208.88778     -80889.292      4980.4067     -75908.885    
    236000   1571.4139      312.80162     -80766.997      5054.1291     -75712.868    
    236500   1479.7207      74.347718     -80674.251      4759.2168     -75915.034    
    237000   1454.3534      368.75769     -80646.727      4677.6281     -75969.099    
    237500   1585.2378      403.80989     -80796.084      5098.5908     -75697.493    
    238000   1569.6056      471.97379     -80819.044      5048.313      -75770.731    
    238500   1532.1061     -41.75336      -80803.754      4927.7037     -75876.05     
    239000   1531.0324      435.34016     -80724.919      4924.2505     -75800.669    
    239500   1498.1705      6.6513117     -80875.354      4818.5569     -76056.797    
    240000   1478.9215      327.8243      -80863.547      4756.6465     -76106.9      
    240500   1520.3509      172.86251     -80846.948      4889.8955     -75957.053    
    241000   1497.2796      403.76047     -80725.246      4815.6914     -75909.555    
    241500   1523.8031      440.82424     -80796.903      4900.9988     -75895.904    
    242000   1555.1633      82.25288      -80803.523      5001.8625     -75801.66     
    242500   1565.0762      387.02546     -80741.885      5033.7451     -75708.14     
    243000   1516.815       526.8309      -80754.23       4878.523      -75875.707    
    243500   1599.6292      399.99106     -80778.991      5144.8779     -75634.113    
    244000   1569.7226      625.7214      -80735.482      5048.6893     -75686.793    
    244500   1502.3337      172.48832     -80695.335      4831.9471     -75863.387    
    245000   1525.7819      511.06142     -80832.109      4907.3632     -75924.746    
    245500   1480.2051      143.69911     -80763.222      4760.775      -76002.447    
    246000   1437.8554      461.64863     -80671.27       4624.5658     -76046.704    
    246500   1454.0636      147.51915     -80691.842      4676.6961     -76015.146    
    247000   1483.743       572.89512     -80628.235      4772.1538     -75856.081    
    247500   1578.79        319.77337     -80789.634      5077.8528     -75711.781    
    248000   1486.6577      166.16066     -80643.143      4781.5282     -75861.614    
    248500   1473.6298      0.50945984    -80768.435      4739.6269     -76028.808    
    249000   1451.9886      435.42051     -80795.041      4670.0223     -76125.018    
    249500   1524.3173      395.81087     -80890.288      4902.6525     -75987.636    
    250000   1535.6927      318.08067     -80921.581      4939.2393     -75982.341    
    250500   1465.2016      413.37659     -80925.646      4712.5192     -76213.127    
    251000   1432.9343      171.42969     -80841.899      4608.7379     -76233.161    
    251500   1453.2752      535.49585     -80919.424      4674.1605     -76245.264    
    252000   1470.7527      197.6109      -80776.105      4730.373      -76045.732    
    252500   1526.7676      571.20969     -80898.183      4910.5334     -75987.65     
    253000   1462.9771      504.61202     -80771.227      4705.3645     -76065.863    
    253500   1460.6226      214.90467     -80814.211      4697.7919     -76116.419    
    254000   1487.7385      66.549794     -80893.641      4785.0043     -76108.636    
    254500   1528.1769      424.95372     -80873.123      4915.0663     -75958.057    
    255000   1510.1683      370.02886     -80701.523      4857.1452     -75844.377    
    255500   1499.489       403.57467     -80799.86       4822.7976     -75977.062    
    256000   1498.4608      168.39297     -80720.993      4819.4905     -75901.503    
    256500   1466.3167      407.12741     -80832.651      4716.1057     -76116.545    
    257000   1531.8678      521.6169      -80784.843      4926.9371     -75857.906    
    257500   1502.1151      408.58678     -80659.92       4831.2439     -75828.676    
    258000   1529.8415      275.36683     -80769.465      4920.4202     -75849.045    
    258500   1459.7863      78.501306     -80832.496      4695.1019     -76137.394    
    259000   1477.3195      239.32824     -80870.709      4751.494      -76119.215    
    259500   1519.9221      375.95947     -80778.457      4888.5163     -75889.94     
    260000   1480.2278      383.66638     -80804.75       4760.8479     -76043.902    
    260500   1435.6516      23.926224     -80781.519      4617.4776     -76164.041    
    261000   1509.8384      396.36688     -80772.559      4856.0844     -75916.475    
    261500   1501.4582      431.78891     -80914.745      4829.131      -76085.614    
    262000   1453.819       64.60282      -80807.195      4675.9094     -76131.285    
    262500   1591.9207      324.02576     -80811.646      5120.0852     -75691.56     
    263000   1601.6645      594.71125     -80852.678      5151.424      -75701.254    
    263500   1500.6272      155.21848     -80766.295      4826.4583     -75939.837    
    264000   1583.8599      418.54638     -80899.263      5094.1592     -75805.104    
    264500   1575.2745      619.81826     -80740.988      5066.5461     -75674.441    
    265000   1527.8939      498.12376     -80833.702      4914.1561     -75919.546    
    265500   1502.5845      105.98602     -80836.816      4832.7536     -76004.063    
    266000   1470.2492      551.73225     -80839.305      4728.7538     -76110.551    
    266500   1508.952       324.59738     -80833.196      4853.2332     -75979.963    
    267000   1494.6335      359.15054     -80875.085      4807.1808     -76067.904    
    267500   1478.2656      524.60647     -80827.842      4754.5369     -76073.305    
    268000   1463.0105      325.43673     -80742.344      4705.472      -76036.872    
    268500   1544.7073      218.72566     -80768.253      4968.2329     -75800.02     
    269000   1508.1958      293.19823     -80633.568      4850.801      -75782.767    
    269500   1553.7072      356.8549      -80637.143      4997.1792     -75639.964    
    270000   1532.6494      310.42595     -80771.43       4929.4513     -75841.979    
    270500   1454.7219      248.3971      -80792.581      4678.8134     -76113.767    
    271000   1512.0912      324.4237      -80760.174      4863.3301     -75896.844    
    271500   1471.3273      130.81819     -80687.643      4732.2212     -75955.421    
    272000   1456.7949      552.23045     -80800.416      4685.4808     -76114.935    
    272500   1465.727      -19.196832     -80788.94       4714.2091     -76074.731    
    273000   1510.2738      572.50023     -80810.277      4857.4848     -75952.793    
    273500   1480.6865     -47.469298     -80866.073      4762.3232     -76103.75     
    274000   1502.076       244.54879     -80828.816      4831.1182     -75997.697    
    274500   1510.1729      251.54375     -80730.234      4857.16       -75873.074    
    275000   1452.3943      314.92513     -80650.656      4671.3273     -75979.329    
    275500   1429.0161      249.86562     -80723.941      4596.1359     -76127.805    
    276000   1510.7434      675.79534     -80848.992      4858.9949     -75989.997    
    276500   1526.5912      137.04472     -80853.669      4909.9661     -75943.703    
    277000   1524.8744      342.74694     -80891.594      4904.4445     -75987.15     
    277500   1462.8888      278.06135     -81014.306      4705.0806     -76309.225    
    278000   1480.3691      316.94789     -80890.573      4761.3023     -76129.27     
    278500   1501.7181      257.18324     -80867.672      4829.967      -76037.705    
    279000   1487.0404      414.02415     -80838.544      4782.7591     -76055.785    
    279500   1481.4431      124.76045     -80768.34       4764.7567     -76003.583    
    280000   1517.7249      842.91528     -80947.487      4881.4494     -76066.038    
    280500   1525.7249     -136.15035     -80916.139      4907.1801     -76008.959    
    281000   1510.4645      228.30878     -80988.839      4858.098      -76130.741    
    281500   1508.8531      332.77789     -80923.316      4852.9151     -76070.4      
    282000   1528.4887      273.39819     -81002.721      4916.0692     -76086.652    
    282500   1449.6995      228.11605     -80809.973      4662.6597     -76147.313    
    283000   1505.6832      279.24501     -80810.975      4842.7199     -75968.255    
    283500   1459.2757      328.68097     -80815.075      4693.4596     -76121.615    
    284000   1457.3973      252.90493     -80829.721      4687.4181     -76142.303    
    284500   1453.6192      106.29361     -80759.17       4675.2667     -76083.903    
    285000   1554.2789      214.28015     -80832.835      4999.0178     -75833.817    
    285500   1546.3337      260.28065     -80887.21       4973.4637     -75913.747    
    286000   1506.9374      654.40068     -81056.719      4846.7537     -76209.966    
    286500   1499.7286      218.21408     -80875.925      4823.5683     -76052.357    
    287000   1425.0533      315.66765     -80839.345      4583.3906     -76255.955    
    287500   1390.1675      92.643172     -80993.705      4471.1876     -76522.517    
    288000   1380.759       403.23663     -81127.298      4440.9271     -76686.371    
    288500   1444.3013      259.12148     -81049.094      4645.2977     -76403.796    
    289000   1498.2662      332.09171     -80935.711      4818.8646     -76116.846    
    289500   1534.5297      305.53159     -80982.041      4935.4987     -76046.542    
    290000   1494.7708      533.17072     -80902.757      4807.6223     -76095.135    
    290500   1514.0119     -16.333235     -80733.192      4869.5075     -75863.684    
    291000   1500.8657      365.46        -80787.431      4827.2255     -75960.205    
    291500   1450.1347      265.55458     -80909.805      4664.0595     -76245.745    
    292000   1409.0582      117.91401     -80649.023      4531.9455     -76117.078    
    292500   1454.1868     -120.73603     -80673.883      4677.0925     -75996.791    
    293000   1483.8243      871.61        -80742.846      4772.4152     -75970.43     
    293500   1436.735       21.506914     -80735.97       4620.9623     -76115.007    
    294000   1473.9604      327.36286     -80793.653      4740.6901     -76052.963    
    294500   1456.8314      502.66713     -80713.901      4685.5981     -76028.303    
    295000   1490.5479      134.07373     -80713.428      4794.0402     -75919.388    
    295500   1508.5912     -65.558369     -80815.459      4852.073      -75963.386    
    296000   1540.6077      573.4343      -80890.324      4955.0473     -75935.277    
    296500   1464.3859     -73.613889     -80802.762      4709.8955     -76092.866    
    297000   1537.4633      640.25458     -80976.35       4944.934      -76031.416    
    297500   1528.0764      314.03717     -80760.295      4914.7431     -75845.551    
    298000   1491.767       670.97154     -80780.194      4797.9613     -75982.233    
    298500   1484.4075     -54.060478     -80820.441      4774.291      -76046.15     
    299000   1536.3248      382.93691     -80817.626      4941.2723     -75876.354    
    299500   1568.4686      177.23486     -80873.395      5044.6562     -75828.739    
    300000   1533.032       657.7295      -80835.144      4930.6817     -75904.462    
    300500   1478.712       243.25669     -80860.655      4755.9725     -76104.683    
    301000   1492.5358      293.06299     -80813.97       4800.4341     -76013.536    
    301500   1463.9607      8.8169603     -80758.067      4708.528      -76049.539    
    302000   1529.9128      384.18927     -80929.235      4920.6494     -76008.586    
    302500   1493.5169      251.32864     -80960.775      4803.5894     -76157.185    
    303000   1474.4799      464.53056     -80946.986      4742.3609     -76204.625    
    303500   1469.9243      345.1372      -80814.458      4727.7088     -76086.749    
    304000   1476.5734      349.19969     -80939.313      4749.0943     -76190.219    
    304500   1467.5114      554.10762     -80906.031      4719.9482     -76186.082    
    305000   1448.1486     -105.6076      -80967.846      4657.6718     -76310.174    
    305500   1503.7824      363.7728      -80918.485      4836.6063     -76081.879    
    306000   1527.5874      341.2288      -81014.442      4913.1701     -76101.272    
    306500   1430.8298      264.04191     -80840.843      4601.9694     -76238.873    
    307000   1498.2222      316.07404     -80892.137      4818.7232     -76073.414    
    307500   1458.2726      646.01661     -80876.519      4690.2333     -76186.286    
    308000   1461.9799     -17.584918     -80845.16       4702.1574     -76143.002    
    308500   1479.8566      345.56931     -80888.421      4759.6541     -76128.767    
    309000   1535.2134      439.32378     -80896.167      4937.6976     -75958.469    
    309500   1557.8697      378.82993     -80758.682      5010.5671     -75748.115    
    310000   1486.6963      612.95476     -80739.215      4781.6523     -75957.563    
    310500   1463.3675      447.01688     -80851.756      4706.6203     -76145.136    
    311000   1492.6349      213.954       -80778.493      4800.7529     -75977.74     
    311500   1556.9923      388.11584     -80937.913      5007.7449     -75930.168    
    312000   1582.8275      545.21944     -80881.178      5090.8387     -75790.339    
    312500   1484.1606      46.536766     -80736.616      4773.497      -75963.119    
    313000   1457.2176      620.46709     -80927.558      4686.8404     -76240.718    
    313500   1400.7092      261.57163     -80869.973      4505.0927     -76364.881    
    314000   1444.3058      339.12451     -80812.025      4645.312      -76166.713    
    314500   1502.734       135.88628     -80928.161      4833.2344     -76094.927    
    315000   1513.2794      415.73773     -80872.79       4867.1515     -76005.639    
    315500   1458.7586      315.12153     -80845.073      4691.7967     -76153.277    
    316000   1460.306       408.55078     -80887.534      4696.7735     -76190.761    
    316500   1514.6449      243.00832     -80938.667      4871.5432     -76067.124    
    317000   1564.3808      63.285134     -80827.285      5031.5087     -75795.777    
    317500   1524.8825      589.35898     -80941.047      4904.4704     -76036.577    
    318000   1476.312       237.19266     -80897.94       4748.2535     -76149.687    
    318500   1503.4218      622.56682     -81015.61       4835.4465     -76180.164    
    319000   1422.6016     -10.734946     -80780.817      4575.5051     -76205.312    
    319500   1474.6898      249.50362     -80937.237      4743.0359     -76194.201    
    320000   1521.5482      582.61553     -80997.107      4893.7463     -76103.361    
    320500   1513.0194      195.64862     -80927.872      4866.3153     -76061.557    
    321000   1463.8697     -148.51901     -80767.401      4708.2355     -76059.165    
    321500   1550.6163      652.20763     -80836.404      4987.238      -75849.166    
    322000   1504.4057      368.5141      -80933.603      4838.6112     -76094.991    
    322500   1456.5335      294.5407      -80922.807      4684.64       -76238.167    
    323000   1467.7723      458.46589     -81026.796      4720.7872     -76306.009    
    323500   1454.2163      590.40261     -80875.802      4677.1872     -76198.615    
    324000   1421.3932      375.81148     -80966.043      4571.6184     -76394.425    
    324500   1484.5013      111.28547     -80901.043      4774.5928     -76126.45     
    325000   1455.8448      419.23369     -80856.113      4682.4251     -76173.687    
    325500   1485.0217      461.5525      -80798.569      4776.2664     -76022.302    
    326000   1496.1077     -173.7334      -80703.448      4811.9223     -75891.525    
    326500   1493.5959      467.88981     -80862.665      4803.8436     -76058.822    
    327000   1443.4468      11.156309     -80932.649      4642.5494     -76290.1      
    327500   1453.4036      551.49325     -80801.016      4674.5733     -76126.443    
    328000   1454.6726     -191.21475     -80965.847      4678.6548     -76287.192    
    328500   1472.2717      483.82715     -80911.766      4735.2586     -76176.508    
    329000   1451.1832      377.39272     -80859.036      4667.4319     -76191.604    
    329500   1436.4516     -25.751986     -80837.154      4620.0509     -76217.103    
    330000   1442.6233      357.20309     -80883.085      4639.9007     -76243.185    
    330500   1462.523       31.470184     -80913.163      4703.9041     -76209.259    
    331000   1465.4269      425.48929     -80958.266      4713.2439     -76245.022    
    331500   1553.9318      280.96213     -81033.89       4997.9017     -76035.988    
    332000   1487.8015      274.82538     -80858.455      4785.2073     -76073.248    
    332500   1521.5517      181.45432     -80811.234      4893.7576     -75917.476    
    333000   1547.6883      243.76001     -80997.444      4977.8207     -76019.623    
    333500   1503.7844      508.62588     -80927.136      4836.6128     -76090.523    
    334000   1484.2226      153.4329      -80819.088      4773.6963     -76045.391    
    334500   1507.091       690.78583     -80880.809      4847.248      -76033.561    
    335000   1475.572      -286.04516     -80705.774      4745.8733     -75959.9      
    335500   1493.8519      574.05569     -80832.801      4804.6671     -76028.134    
    336000   1525.203       343.94276     -80797.312      4905.5013     -75891.811    
    336500   1521.5311      188.27959     -80676.891      4893.6914     -75783.2      
    337000   1540.0583      473.42728     -80770.433      4953.2804     -75817.153    
    337500   1581.7789      226.31708     -80774.092      5087.4659     -75686.626    
    338000   1505.864       294.70507     -80688.136      4843.3013     -75844.835    
    338500   1494.0144      267.9662      -80875.446      4805.1895     -76070.256    
    339000   1485.3674      457.56833     -80762.154      4777.3782     -75984.776    
    339500   1529.823       352.5499      -80874.948      4920.3606     -75954.588    
    340000   1449.1852      266.78106     -80793.405      4661.0058     -76132.399    
    340500   1471.0878      55.711154     -80888.858      4731.451      -76157.407    
    341000   1462.714       503.93019     -80719.312      4704.5182     -76014.794    
    341500   1489.2968     -22.5557       -80844.285      4790.0165     -76054.268    
    342000   1534.2344      842.74103     -80981.015      4934.549      -76046.466    
    342500   1431.889      -62.826514     -80932.115      4605.3759     -76326.739    
    343000   1501.327       518.26385     -80797.35       4828.7092     -75968.641    
    343500   1443.7237      243.32916     -80824.313      4643.44       -76180.873    
    344000   1500.493       227.50078     -80926.03       4826.0266     -76100.003    
    344500   1530.1054      395.1312      -80826.687      4921.269      -75905.418    
    345000   1507.5026      173.73828     -80779.035      4848.5717     -75930.463    
    345500   1523.4674      572.724       -80699.121      4899.919      -75799.202    
    346000   1588.1168      192.46474     -80731.925      5107.8507     -75624.075    
    346500   1501.3997      425.19968     -80783.515      4828.9429     -75954.572    
    347000   1541.6582      384.21977     -80860.208      4958.426      -75901.782    
    347500   1451.3966      407.99423     -80702.428      4668.1183     -76034.309    
    348000   1510.1505      253.1114      -80831.126      4857.0881     -75974.038    
    348500   1595.3358      324.08426     -80775.299      5131.0689     -75644.23     
    349000   1527.2691      439.62692     -80738.179      4912.1464     -75826.033    
    349500   1543.635       367.08117     -80834.614      4964.7842     -75869.83     
    350000   1494.7414      241.02954     -80910.055      4807.5278     -76102.527    
    350500   1473.4311      473.42589     -80827.696      4738.9878     -76088.708    
    351000   1432.6886     -262.70056     -80849.468      4607.9479     -76241.52     
    351500   1488.4166      551.44789     -80978.437      4787.1855     -76191.252    
    352000   1513.3934      275.13768     -80750.761      4867.5182     -75883.243    
    352500   1515.9369      206.56155     -80807.803      4875.6989     -75932.104    
    353000   1505.8376      113.01683     -80836.278      4843.2164     -75993.061    
    353500   1518.2915      328.29483     -80911.264      4883.2718     -76027.992    
    354000   1484.7465      94.516509     -80737.657      4775.3813     -75962.275    
    354500   1536.8949      438.25666     -80993.15       4943.106      -76050.044    
    355000   1476.8389      314.52884     -80948.392      4749.9483     -76198.444    
    355500   1463.0404      228.38524     -80944.129      4705.5682     -76238.56     
    356000   1543.4746      577.29762     -80912.82       4964.2682     -75948.552    
    356500   1471.8042      324.91489     -80938.84       4733.7551     -76205.085    
    357000   1453.1693      496.90719     -80842.824      4673.8198     -76169.005    
    357500   1455.3005     -51.903341     -80836.792      4680.6742     -76156.118    
    358000   1467.0007      396.55473     -81048.673      4718.3057     -76330.367    
    358500   1509.8749      119.32057     -80923.808      4856.2017     -76067.606    
    359000   1473.9293      540.36446     -80993.531      4740.5899     -76252.941    
    359500   1496.2452      296.59626     -80880.773      4812.3646     -76068.409    
    360000   1527.6728      461.40295     -80978.846      4913.445      -76065.401    
    360500   1521.1911     -20.387527     -80904.637      4892.5977     -76012.039    
    361000   1542.74        226.8217      -80843.536      4961.9054     -75881.631    
    361500   1473.5312     -31.830831     -80842.334      4739.3097     -76103.024    
    362000   1496.2077      530.66517     -80833.946      4812.2439     -76021.703    
    362500   1477.9266      13.397547     -80766.453      4753.4464     -76013.007    
    363000   1549.5902      175.87869     -80985.155      4983.9377     -76001.218    
    363500   1554.2916      507.96937     -80921.458      4999.0589     -75922.4      
    364000   1530.5305      294.17279     -80944.56       4922.636      -76021.924    
    364500   1580.3363      365.7731      -80841.387      5082.8263     -75758.561    
    365000   1458.179       273.82717     -80798.152      4689.9323     -76108.22     
    365500   1548.1717      410.28932     -80851.555      4979.3754     -75872.18     
    366000   1507.4437      130.73387     -80887.815      4848.3821     -76039.433    
    366500   1510.469       185.68233     -80816.102      4858.1124     -75957.99     
    367000   1410.5398      488.38059     -80810.99       4536.7107     -76274.279    
    367500   1454.2041      93.225647     -80925.444      4677.148      -76248.296    
    368000   1426.7425      67.310399     -80867.852      4588.8234     -76279.029    
    368500   1478.5005      346.30521     -80751.977      4755.2924     -75996.685    
    369000   1541.4675      292.07665     -80925.092      4957.8127     -75967.279    
    369500   1474.0372      236.93397     -80950.068      4740.9371     -76209.131    
    370000   1453.0535      284.57978     -80839.726      4673.4473     -76166.279    
    370500   1581.3272      466.84683     -80865.329      5086.0134     -75779.315    
    371000   1522.8018      74.965502     -80795.059      4897.7783     -75897.281    
    371500   1486.7195      212.42819     -80860.221      4781.7271     -76078.494    
    372000   1465.5099      361.83035     -80892.563      4713.5107     -76179.053    
    372500   1431.8006      522.55043     -80886.048      4605.0917     -76280.956    
    373000   1462.1377     -116.67274     -80802.241      4702.6649     -76099.576    
    373500   1539.4083      558.07451     -80843.157      4951.1898     -75891.968    
    374000   1475.891       97.704753     -80876.589      4746.8994     -76129.689    
    374500   1415.0479      135.87846     -80600.189      4551.2102     -76048.979    
    375000   1511.9581      359.51779     -80863.459      4862.9017     -76000.558    
    375500   1446.738       57.241631     -80790.794      4653.1348     -76137.66     
    376000   1527.8153      666.88463     -80906.337      4913.9033     -75992.433    
    376500   1594.2863      275.81754     -80857.888      5127.6936     -75730.194    
    377000   1482.2976      457.31843     -80774.263      4767.5048     -76006.759    
    377500   1524.6807      251.3441      -80824.341      4903.8215     -75920.519    
    378000   1544.0013      286.33221     -80847.273      4965.9621     -75881.311    
    378500   1570.9558      512.06441     -80815.833      5052.6556     -75763.177    
    379000   1525.4677      229.52617     -80675.85       4906.3527     -75769.497    
    379500   1506.5105      553.28631     -80753.265      4845.3807     -75907.884    
    380000   1459.0738      235.47216     -80745.475      4692.8102     -76052.665    
    380500   1510.5863      195.4188      -80832.825      4858.4899     -75974.335    
    381000   1425.4438      169.89271     -80880.327      4584.6464     -76295.681    
    381500   1459.7065      199.98027     -80777.485      4694.8453     -76082.639    
    382000   1414.9266      191.75667     -80716.903      4550.82       -76166.083    
    382500   1476.0752     -21.163265     -80794.392      4747.4918     -76046.9      
    383000   1463.8074      681.97522     -80938.95       4708.0351     -76230.915    
    383500   1494.4528     -30.531251     -80940.062      4806.5995     -76133.462    
    384000   1452.1272      592.02291     -80956.489      4670.468      -76286.021    
    384500   1446.113       166.06761     -80853.502      4651.1246     -76202.377    
    385000   1476.2867      315.58731     -81003.61       4748.1721     -76255.438    
    385500   1487.4886      288.7226      -81016.412      4784.2008     -76232.211    
    386000   1585.2197      443.95705     -80883.506      5098.5327     -75784.973    
    386500   1480.9223      491.56493     -80816.166      4763.0817     -76053.084    
    387000   1512.0907      459.46794     -80847.638      4863.3282     -75984.31     
    387500   1533.2655      324.2505      -80839.219      4931.4327     -75907.786    
    388000   1542.6577      211.85898     -80900.179      4961.6409     -75938.539    
    388500   1540.507       281.43419     -80961.46       4954.7234     -76006.736    
    389000   1566.1453      507.81109     -80871.668      5037.1839     -75834.485    
    389500   1533.5481      256.25483     -80835.625      4932.3415     -75903.283    
    390000   1553.0132      470.35539     -80773.906      4994.947      -75778.959    
    390500   1493.0106      353.45376     -80557.827      4801.961      -75755.866    
    391000   1501.5207      160.0948      -80744.793      4829.3322     -75915.461    
    391500   1489.7812      577.80928     -80678.59       4791.5743     -75887.016    
    392000   1538.7209      209.84259     -80823.179      4948.9789     -75874.2      
    392500   1542.5633      861.67814     -80698.947      4961.3373     -75737.61     
    393000   1558.7862      33.895837     -80883.816      5013.5149     -75870.301    
    393500   1558.1632      343.1306      -80879.217      5011.511      -75867.706    
    394000   1479.406       161.56606     -80621.404      4758.2048     -75863.199    
    394500   1442.2713      319.70525     -80763.887      4638.7685     -76125.119    
    395000   1456.6311      364.2249      -80862.855      4684.954      -76177.901    
    395500   1528.3399      297.99506     -80768.561      4915.5904     -75852.97     
    396000   1496.3068      97.205019     -80749.311      4812.5626     -75936.748    
    396500   1499.116       195.53959     -80857.44       4821.5979     -76035.842    
    397000   1504.604       394.84016     -80905.176      4839.2488     -76065.927    
    397500   1469.1795      178.20458     -80850.773      4725.3132     -76125.46     
    398000   1445.6042      151.37226     -80923.728      4649.488      -76274.24     
    398500   1480.7504      248.65882     -80946.708      4762.5288     -76184.179    
    399000   1518.2218      448.146       -80967.447      4883.0477     -76084.399    
    399500   1483.5496      29.770796     -80848.49       4771.5316     -76076.959    
    400000   1502.3961      637.96375     -80863.568      4832.1476     -76031.42     
    400500   1483.3014      478.57152     -80941.462      4770.7334     -76170.728    
    401000   1535.2075      385.99633     -80872.559      4937.6789     -75934.88     
    401500   1458.3785      68.886744     -80701.366      4690.5739     -76010.792    
    402000   1461.8531      669.96153     -80820.212      4701.7495     -76118.462    
    402500   1441.3174      200.44063     -80801.952      4635.7005     -76166.251    
    403000   1447.1346      346.89187     -80828.776      4654.4103     -76174.366    
    403500   1508.3908      245.05048     -80872.502      4851.4285     -76021.073    
    404000   1518.7089      435.54763     -80926.471      4884.6143     -76041.856    
    404500   1503.6547      177.18665     -80934.456      4836.1957     -76098.26     
    405000   1471.4237      295.36267     -80850.472      4732.5314     -76117.941    
    405500   1455.3166      223.50449     -80898.246      4680.7261     -76217.52     
    406000   1460.7186      101.47226     -80891.1        4698.1004     -76192.999    
    406500   1468.3046      737.60223     -80969.679      4722.4993     -76247.18     
    407000   1461.6811      243.96596     -80843.584      4701.1962     -76142.387    
    407500   1512.7119      560.27602     -80913.598      4865.3263     -76048.271    
    408000   1487.7341      182.6578      -80828.207      4784.9904     -76043.216    
    408500   1520.6872     -61.496978     -80842.228      4890.9772     -75951.25     
    409000   1517.4828      634.94566     -80724.585      4880.6709     -75843.914    
    409500   1503.1034      39.359519     -80863.711      4834.4225     -76029.288    
    410000   1526.0113      299.58914     -80944.362      4908.101      -76036.261    
    410500   1580.289       268.13129     -80941.207      5082.6741     -75858.533    
    411000   1540.0192      50.900814     -80726.451      4953.1546     -75773.297    
    411500   1540.838       502.98713     -80921.705      4955.7881     -75965.917    
    412000   1528.0913     -186.3573      -80842.779      4914.7911     -75927.987    
    412500   1522.4725      571.48517     -80879.556      4896.7192     -75982.836    
    413000   1523.8552      348.60367     -80889.658      4901.1665     -75988.492    
    413500   1451.4533      200.22357     -80825.45       4668.3005     -76157.149    
    414000   1481.0856      630.93586     -80766.646      4763.6069     -76003.039    
    414500   1520.8504      348.73826     -80851.085      4891.502      -75959.583    
    415000   1524.4871      452.71298     -80882.948      4903.1986     -75979.749    
    415500   1500.6072      19.661719     -80665.934      4826.3941     -75839.54     
    416000   1524.2124      473.16463     -80729.542      4902.3151     -75827.227    
    416500   1456.4015      97.765961     -80786.303      4684.2153     -76102.088    
    417000   1437.8006      256.68338     -80861.549      4624.3895     -76237.16     
    417500   1461.9883      477.52382     -81005.154      4702.1842     -76302.97     
    418000   1491.3163      395.42172     -80956.438      4796.5118     -76159.926    
    418500   1475.5237      16.611772     -80958.573      4745.718      -76212.855    
    419000   1566.8896      151.01591     -80932.487      5039.5778     -75892.909    
    419500   1473.6552      520.68216     -80865.739      4739.7085     -76126.031    
    420000   1527.0769      674.50295     -80992.178      4911.5284     -76080.649    
    420500   1535.9067      147.14394     -80813.267      4939.9275     -75873.34     
    421000   1520.5554      211.73919     -80911.851      4890.5533     -76021.298    
    421500   1510.1577      596.29981     -80945.19       4857.1112     -76088.079    
    422000   1480.0368      313.35885     -80916.487      4760.2336     -76156.253    
    422500   1417.6681      244.05428     -80924.738      4559.6376     -76365.1      
    423000   1460.2407      230.5858      -80847.784      4696.5636     -76151.221    
    423500   1496.0631      604.58304     -81005.714      4811.7789     -76193.935    
    424000   1459.2584      27.22418      -80963.712      4693.4041     -76270.308    
    424500   1432.2173      364.51262     -80927.432      4606.432      -76321        
    425000   1499.9514      30.923774     -80994.066      4824.2849     -76169.782    
    425500   1426.4217      570.48865     -80870.113      4587.7916     -76282.321    
    426000   1447.7432      22.24142      -80820.288      4656.3678     -76163.921    
    426500   1536.6258      423.51022     -80910.977      4942.2403     -75968.737    
    427000   1488.8913      308.06732     -80781.152      4788.7122     -75992.439    
    427500   1449.428       277.19014     -80727.292      4661.7865     -76065.505    
    428000   1553.5017      33.121225     -80791.328      4996.5181     -75794.81     
    428500   1550.5388      425.38412     -80788.188      4986.9887     -75801.199    
    429000   1503.6826      342.7639      -80854.73       4836.2853     -76018.445    
    429500   1512.8799      86.605293     -80821.855      4865.8667     -75955.988    
    430000   1538.8944      418.99696     -80786.339      4949.537      -75836.802    
    430500   1487.8647     -11.411905     -80706.739      4785.4103     -75921.329    
    431000   1531.4278      189.73276     -80698.71       4925.522      -75773.188    
    431500   1494.6644      387.64393     -80890.954      4807.2804     -76083.674    
    432000   1513.9758      310.14634     -80936.318      4869.3915     -76066.927    
    432500   1534.523       323.69125     -80900.764      4935.4773     -75965.287    
    433000   1532.3781      261.50685     -81006.913      4928.5785     -76078.334    
    433500   1480.0942      293.98491     -80901.837      4760.4182     -76141.419    
    434000   1560.8459      378.48619     -80819.336      5020.1395     -75799.197    
    434500   1510.4925      424.64931     -80863.122      4858.1881     -76004.934    
    435000   1517.2726      557.40291     -80840.22       4879.9948     -75960.225    
    435500   1521.0976      210.88309     -80762.309      4892.2971     -75870.012    
    436000   1483.4806      602.2304      -80721.357      4771.3097     -75950.047    
    436500   1533.1896      37.080068     -80746.188      4931.1885     -75815        
    437000   1522.8488      497.84195     -80703.659      4897.9295     -75805.73     
    437500   1560.9869      174.16168     -80922.565      5020.593      -75901.972    
    438000   1504.0346      621.76944     -80822.403      4837.4174     -75984.986    
    438500   1481.559       71.843761     -80856.917      4765.1294     -76091.787    
    439000   1434.1944      594.80324     -80749.67       4612.7909     -76136.879    
    439500   1444.8981     -14.954201     -80737.281      4647.217      -76090.064    
    440000   1466.8405      392.14894     -80812.857      4717.7904     -76095.066    
    440500   1493.1961      361.76334     -80826.363      4802.5577     -76023.805    
    441000   1437.8989      418.52568     -80944.857      4624.7057     -76320.151    
    441500   1492.6816      209.12157     -80987.342      4800.9028     -76186.439    
    442000   1446.8392      137.34647     -80818.81       4653.4602     -76165.35     
    442500   1509.644       329.83863     -81011.924      4855.459      -76156.465    
    443000   1505.7916      534.04239     -80858.124      4843.0686     -76015.056    
    443500   1463.0902     -268.36877     -80989.816      4705.7284     -76284.088    
    444000   1529.7024      336.31477     -80895.173      4919.9726     -75975.2      
    444500   1451.9627      422.50884     -80833.376      4669.939      -76163.436    
    445000   1544.3357      273.59334     -80800.473      4967.0376     -75833.436    
    445500   1499.0599      554.70543     -80847.473      4821.4175     -76026.056    
    446000   1509.6311      245.36267     -80765.82       4855.4175     -75910.403    
    446500   1468.274       404.10388     -80728.539      4722.4009     -76006.138    
    447000   1479.2551      142.00385     -80721.847      4757.7195     -75964.128    
    447500   1480.4274      423.06915     -80848.934      4761.4898     -76087.445    
    448000   1515.7338      394.3765      -80757.052      4875.0455     -75882.006    
    448500   1508.6038      219.69158     -80735.286      4852.1135     -75883.173    
    449000   1514.0107      478.96209     -80916.134      4869.5036     -76046.63     
    449500   1468.0886      274.90407     -80671.24       4721.8046     -75949.435    
    450000   1524.5005     -61.886181     -80794.354      4903.2418     -75891.112    
    450500   1521.1113      382.19773     -80843.161      4892.3413     -75950.82     
    451000   1465.7073      285.03929     -80864.2        4714.1457     -76150.054    
    451500   1531.2762      643.37604     -80911.731      4925.0346     -75986.697    
    452000   1530.411       98.385623     -80971.105      4922.2519     -76048.853    
    452500   1496.6449      276.14709     -80933.893      4813.6501     -76120.243    
    453000   1518.7024      366.69896     -80853.649      4884.5934     -75969.055    
    453500   1480.9847      246.72691     -80941.791      4763.2822     -76178.508    
    454000   1464.4152      357.8023      -80968.03       4709.9899     -76258.04     
    454500   1477.9679      73.096205     -81016.671      4753.5795     -76263.091    
    455000   1556.1673      531.00349     -80922.164      5005.0917     -75917.072    
    455500   1500.5925      254.06647     -80812.335      4826.3467     -75985.989    
    456000   1520.0696      533.19573     -80771.426      4888.9908     -75882.435    
    456500   1524.5454      521.06381     -80715.295      4903.3864     -75811.909    
    457000   1554.5438     -31.510017     -80840.724      4999.8698     -75840.855    
    457500   1504.809       337.11837     -80866.918      4839.9084     -76027.01     
    458000   1507.0556      383.34041     -81021.121      4847.1338     -76173.987    
    458500   1479.5488      374.94028     -80965.21       4758.6639     -76206.546    
    459000   1494.0071      518.7341      -80922.069      4805.1662     -76116.903    
    459500   1464.5605      185.12019     -80874.413      4710.4572     -76163.956    
    460000   1482.1789      263.61519     -80800.246      4767.1231     -76033.123    
    460500   1503.5836      480.6092      -80808.216      4835.9669     -75972.25     
    461000   1557.3598      142.75102     -80874.235      5008.927      -75865.308    
    461500   1511.7875      325.16819     -80744.626      4862.3531     -75882.273    
    462000   1500.8008      341.80289     -80893.508      4827.0168     -76066.491    
    462500   1523.5537     -168.08291     -80844.667      4900.1967     -75944.47     
    463000   1505.7544      480.91285     -80915.145      4842.9488     -76072.196    
    463500   1478.7588      452.2795      -80843.812      4756.1232     -76087.688    
    464000   1504.9795      139.00626     -80750.811      4840.4566     -75910.354    
    464500   1506.171       300.9972      -80838.508      4844.2889     -75994.219    
    465000   1478.9959      223.69145     -80718.464      4756.8858     -75961.578    
    465500   1512.1529      175.14178     -80829.772      4863.5284     -75966.244    
    466000   1515.9231      128.79192     -80768.046      4875.6543     -75892.391    
    466500   1529.8908      477.28957     -80909.703      4920.5788     -75989.124    
    467000   1514.0011      238.70587     -80822.689      4869.4728     -75953.216    
    467500   1514.0206      514.44342     -80896.196      4869.5354     -76026.661    
    468000   1546.6332     -91.513817     -80894.557      4974.427      -75920.13     
    468500   1504.8685      505.52194     -81010.645      4840.0995     -76170.546    
    469000   1491.9003      532.34892     -80892.052      4798.39       -76093.662    
    469500   1464.2311      224.7538      -80891.146      4709.3978     -76181.748    
    470000   1473.5286      354.52712     -80922.444      4739.3012     -76183.143    
    470500   1492.5927      745.81885     -80840.492      4800.6169     -76039.876    
    471000   1507.5496      424.15159     -80656.549      4848.7226     -75807.827    
    471500   1532.756       96.627195     -80686.346      4929.794      -75756.552    
    472000   1455.4102      566.3081      -80792.519      4681.0271     -76111.492    
    472500   1518.798       455.13494     -80806.568      4884.901      -75921.667    
    473000   1511.8486     -59.106808     -80747.978      4862.5495     -75885.428    
    473500   1517.3835      654.44429     -80841.35       4880.3515     -75960.999    
    474000   1494.1253      167.4073      -80848.899      4805.5464     -76043.352    
    474500   1502.3175      225.41063     -80779.843      4831.895      -75947.948    
    475000   1468.367       131.19087     -80931.985      4722.6999     -76209.285    
    475500   1411.9836      597.60644     -80914.406      4541.3545     -76373.052    
    476000   1462.2382      320.71583     -80769.77       4702.9879     -76066.782    
    476500   1491.7467      594.73106     -80789.563      4797.8962     -75991.667    
    477000   1524.3486     -60.047543     -80832.702      4902.7533     -75929.949    
    477500   1534.5216      678.60162     -80891.348      4935.4728     -75955.875    
    478000   1484.6039      404.65782     -80908.846      4774.9228     -76133.923    
    478500   1495.894       430.39097     -80738.507      4811.2351     -75927.272    
    479000   1528.8953      593.50861     -80805.095      4917.3769     -75887.718    
    479500   1440.8071      109.6543      -80678.257      4634.0594     -76044.197    
    480000   1499.5233      298.99854     -80787.467      4822.9077     -75964.56     
    480500   1484.7748      278.95669     -80877.99       4775.4722     -76102.518    
    481000   1430.1183      128.92063     -80776.589      4599.6808     -76176.908    
    481500   1437.2648      502.90946     -80812.26       4622.6661     -76189.594    
    482000   1432.1904      506.51878     -80788.556      4606.3454     -76182.21     
    482500   1453.0035      110.28836     -80721.168      4673.2866     -76047.882    
    483000   1531.6993      252.94441     -80772.767      4926.3953     -75846.371    
    483500   1480.6036      292.90738     -80777.579      4762.0565     -76015.523    
    484000   1453.4792      195.2179      -80780.759      4674.8165     -76105.943    
    484500   1488.6741      269.69501     -80865.469      4788.0137     -76077.456    
    485000   1541.8196      519.86288     -80895.631      4958.9453     -75936.685    
    485500   1489.1071      160.4468      -80879.575      4789.4062     -76090.169    
    486000   1521.507       387.46033     -80816.316      4893.6139     -75922.703    
    486500   1583.1308      267.39913     -80928.533      5091.8142     -75836.718    
    487000   1529.0689      249.36611     -80835.988      4917.9351     -75918.053    
    487500   1466.0993      236.02456     -80942.966      4715.4065     -76227.559    
    488000   1482.6443      279.45426     -80996.909      4768.6202     -76228.289    
    488500   1484.271       562.72549     -80938.318      4773.8521     -76164.466    
    489000   1481.3097      154.53805     -80941.127      4764.3275     -76176.8      
    489500   1520.196       169.49859     -80847.523      4889.3972     -75958.125    
    490000   1571.6634      210.72004     -80901.823      5054.9318     -75846.891    
    490500   1516.7595      836.76231     -80837.757      4878.3444     -75959.413    
    491000   1547.3898     -105.95729     -80746.837      4976.8606     -75769.976    
    491500   1498.0584      674.40645     -80631.793      4818.1963     -75813.596    
    492000   1557.2163      484.62414     -80841.681      5008.4655     -75833.216    
    492500   1508.9935      226.06528     -80795.731      4853.3669     -75942.364    
    493000   1475.395       167.08882     -80714.451      4745.304      -75969.147    
    493500   1491.3012      131.09098     -80681.196      4796.4631     -75884.733    
    494000   1523.328       920.09091     -80730.069      4899.4706     -75830.598    
    494500   1578.4099      56.056537     -80811.71       5076.6305     -75735.079    
    495000   1561.3827      361.24278     -80831.944      5021.8659     -75810.078    
    495500   1495.0148      492.10381     -80738.991      4808.4071     -75930.584    
    496000   1556.571       55.411637     -80715.589      5006.3901     -75709.199    
    496500   1533.7964      415.80101     -80616.047      4933.1401     -75682.907    
    497000   1509.7142      248.15246     -80694.212      4855.6848     -75838.527    
    497500   1531.7618      238.63054     -80794.09       4926.5963     -75867.494    
    498000   1517.3528      735.04776     -80824.747      4880.2529     -75944.494    
    498500   1523.1007      76.245385     -80733.55       4898.7398     -75834.81     
    499000   1509.6095      632.70769     -80677.77       4855.3481     -75822.422    
    499500   1505.3381     -53.005181     -80779.911      4841.6101     -75938.301    
    500000   1486.407       515.34549     -80948.168      4780.7221     -76167.446    
Loop time of 3076.76 on 1 procs for 500000 steps with 1080 atoms

Total wall time: 0:51:16
