LAMMPS (22 Jul 2025 - Update 2)
read_restart restarts/start_repro.rst
Reading restart file ...
  restart file = 22 Jul 2025, LAMMPS = 22 Jul 2025
  restoring atom style charge from restart
  orthogonal box = (0 0 0) to (70 70 70)
  1 by 1 by 1 MPI processor grid
  pair style reaxff stores no restart info
  495 atoms
  read_restart CPU = 0.001 seconds
pair_style reaxff NULL
pair_coeff * * ffield.reax.cho C H O
Reading potential file ffield.reax.cho with DATE: 2010-02-19
unfix q
ERROR: Could not find fix ID q to delete (src/src/modify.cpp:1071)
fix q all qeq/reaxff 1 0.0 10.0 1.0e-6 reaxff maxiter 200
unfix int
ERROR: Could not find fix ID int to delete (src/src/modify.cpp:1071)
unfix lang
ERROR: Could not find fix ID lang to delete (src/src/modify.cpp:1071)
fix int all nve
fix lang all langevin 1500.0 1500.0 100.0 90421
neighbor 2.0 bin
neigh_modify every 1 delay 0 check yes
reset_timestep 0
thermo 100000000
thermo_style custom step temp pe ke etotal press
dump detl all custom 10000 dumps/etlqeq_repro.*.dump id type q x y z
dump_modify detl sort id
unfix q
fix q all qeq/reaxff 1 0.0 10.0 1e-06 reaxff maxiter 200
run 0 post no pre no

CITE-CITE-CITE-CITE-CITE-CITE-CITE-CITE-CITE-CITE-CITE-CITE-CITE

Your simulation uses code contributions which should be cited:

- pair reaxff command: doi:10.1016/j.parco.2011.08.005

@Article{Aktulga12,
 author = {H. M. Aktulga and J. C. Fogarty and S. A. Pandit and A. Y. Grama},
 title = {Parallel Reactive Molecular Dynamics: {N}umerical Methods and Algorithmic Techniques},
 journal = {Parallel Computing},
 year =    2012,
 volume =  38,
 number =  {4--5},
 pages =   {245--259}
}

- fix qeq/reaxff command: doi:10.1016/j.parco.2011.08.005

@Article{Aktulga12,
 author = {H. M. Aktulga and J. C. Fogarty and S. A. Pandit and A. Y. Grama},
 title = {Parallel Reactive Molecular Dynamics: {N}umerical Methods and Algorithmic Techniques},
 journal = {Parallel Computing},
 year =    2012,
 volume =  38,
 pages =   {245--259}
}

CITE-CITE-CITE-CITE-CITE-CITE-CITE-CITE-CITE-CITE-CITE-CITE-CITE

Neighbor list info ...
  update: every = 1 steps, delay = 0 steps, check = yes
  max neighbors/atom: 2000, page size: 100000
  master list distance cutoff = 12
  ghost atom cutoff = 12
  binsize = 6, bins = 12 12 12
  2 neighbor lists, perpetual/occasional/extra = 2 0 0
  (1) pair reaxff, perpetual
      attributes: half, newton off, ghost
      pair build: half/bin/ghost/newtoff
      stencil: full/ghost/bin/3d
      bin: standard
  (2) fix qeq/reaxff, perpetual, copy from (1)
      attributes: half, newton off
      pair build: copy
      stencil: none
      bin: none
Per MPI rank memory allocation (min/avg/max) = 22.5 | 22.5 | 22.5 Mbytes
   Step          Temp          PotEng         KinEng         TotEng         Press     
         0   1402.3742     -36916.94       2065.0243     -34851.915      204.30362    
Loop time of 2.265e-06 on 1 procs for 0 steps with 495 atoms

unfix q
fix q all qeq/reaxff 1 0.0 10.0 0.0001 reaxff maxiter 200
run 0 post no pre no
   Step          Temp          PotEng         KinEng         TotEng         Press     
         0   1402.3742     -36916.94       2065.0243     -34851.915      204.30362    
Loop time of 9.13e-07 on 1 procs for 0 steps with 495 atoms

unfix q
fix q all qeq/reaxff 1 0.0 10.0 1e-06 reaxff maxiter 200
run 0 post no pre no
   Step          Temp          PotEng         KinEng         TotEng         Press     
         0   1402.3742     -36916.94       2065.0243     -34851.915      204.30362    
Loop time of 8.27e-07 on 1 procs for 0 steps with 495 atoms

unfix q
fix q all qeq/reaxff 1 0.0 10.0 0.0001 reaxff maxiter 200
run 0 post no pre no
   Step          Temp          PotEng         KinEng         TotEng         Press     
         0   1402.3742     -36916.94       2065.0243     -34851.915      204.30362    
Loop time of 7.81e-07 on 1 procs for 0 steps with 495 atoms

unfix q
fix q all qeq/reaxff 1 0.0 10.0 0.0005 reaxff maxiter 200
unfix q
fix q all qeq/reaxff 1 0.0 10.0 0.0001 reaxff maxiter 200
run 0 post no pre no
   Step          Temp          PotEng         KinEng         TotEng         Press     
         0   1402.3742     -36916.94       2065.0243     -34851.915      204.30362    
Loop time of 8.06e-07 on 1 procs for 0 steps with 495 atoms

unfix q
fix q all qeq/reaxff 1 0.0 10.0 1e-06 reaxff maxiter 200
run 0 post no pre no
   Step          Temp          PotEng         KinEng         TotEng         Press     
         0   1402.3742     -36916.94       2065.0243     -34851.915      204.30362    
Loop time of 7.28e-07 on 1 procs for 0 steps with 495 atoms

unfix q
fix q all qeq/reaxff 1 0.0 10.0 0.0001 reaxff maxiter 200
run 0 post no pre no
   Step          Temp          PotEng         KinEng         TotEng         Press     
         0   1402.3742     -36916.94       2065.0243     -34851.915      204.30362    
Loop time of 7.2e-07 on 1 procs for 0 steps with 495 atoms

unfix q
fix q all qeq/reaxff 1 0.0 10.0 0.0005 reaxff maxiter 200
timestep 0.045000
run 20 post no pre no
   Step          Temp          PotEng         KinEng         TotEng         Press     
         0   1402.3742     -36916.94       2065.0243     -34851.915      204.30362    
        20   1415.5908     -36928.559      2084.4861     -34844.073      175.56168    
Loop time of 0.0324279 on 1 procs for 20 steps with 495 atoms

timestep 0.067500
run 20 post no pre no
   Step          Temp          PotEng         KinEng         TotEng         Press     
        20   1415.5908     -36928.559      2084.4861     -34844.073      175.56168    
        40   1460.4299     -36985.816      2150.5125     -34835.303      151.96545    
Loop time of 0.0323957 on 1 procs for 20 steps with 495 atoms

timestep 0.101250
run 20 post no pre no
   Step          Temp          PotEng         KinEng         TotEng         Press     
        40   1460.4299     -36985.816      2150.5125     -34835.303      151.96545    
        60   1453.4115     -36974.676      2140.1778     -34834.498      18.498631    
Loop time of 0.0302713 on 1 procs for 20 steps with 495 atoms

timestep 0.151875
run 20 post no pre no
   Step          Temp          PotEng         KinEng         TotEng         Press     
        60   1453.4115     -36974.676      2140.1778     -34834.498      18.498631    
        80   1480.6878     -36998.169      2180.3426     -34817.827     -49.479509    
Loop time of 0.0300586 on 1 procs for 20 steps with 495 atoms

timestep 0.227813
run 20 post no pre no
   Step          Temp          PotEng         KinEng         TotEng         Press     
        80   1480.6878     -36998.169      2180.3426     -34817.827     -49.479509    
       100   1420.2579     -36916.055      2091.3584     -34824.696      205.77262    
Loop time of 0.0308891 on 1 procs for 20 steps with 495 atoms

timestep 0.255799
run 20 post no pre no
   Step          Temp          PotEng         KinEng         TotEng         Press     
       100   1420.2579     -36916.055      2091.3584     -34824.696      205.77262    
       120   1420.4097     -36914.256      2091.5819     -34822.674     -7.414077     
Loop time of 0.0299683 on 1 procs for 20 steps with 495 atoms

timestep 0.269587
run 20 post no pre no
   Step          Temp          PotEng         KinEng         TotEng         Press     
       120   1420.4097     -36914.256      2091.5819     -34822.674     -7.414077     
       140   1476.0617     -36938.776      2173.5307     -34765.245      178.88635    
Loop time of 0.0323815 on 1 procs for 20 steps with 495 atoms

timestep 0.281194
run 20 post no pre no
   Step          Temp          PotEng         KinEng         TotEng         Press     
       140   1476.0617     -36938.776      2173.5307     -34765.245      178.88635    
       160   1418.099      -36846.657      2088.1794     -34758.478      30.884295    
Loop time of 0.0295595 on 1 procs for 20 steps with 495 atoms

timestep 0.266421
run 20 post no pre no
   Step          Temp          PotEng         KinEng         TotEng         Press     
       160   1418.099      -36846.657      2088.1794     -34758.478      30.884295    
       180   1485.6147     -36944.3        2187.5976     -34756.702      188.56197    
Loop time of 0.0286131 on 1 procs for 20 steps with 495 atoms

timestep 0.264679
run 20 post no pre no
   Step          Temp          PotEng         KinEng         TotEng         Press     
       180   1485.6147     -36944.3        2187.5976     -34756.702      188.56197    
       200   1422.6658     -36875.71       2094.9041     -34780.806     -1.8356865    
Loop time of 0.028308 on 1 procs for 20 steps with 495 atoms

timestep 0.268399
run 20 post no pre no
   Step          Temp          PotEng         KinEng         TotEng         Press     
       200   1422.6658     -36875.71       2094.9041     -34780.806     -1.8356865    
       220   1471.115      -36905.046      2166.2464     -34738.8        155.66801    
Loop time of 0.0300813 on 1 procs for 20 steps with 495 atoms

timestep 0.257643
run 20 post no pre no
   Step          Temp          PotEng         KinEng         TotEng         Press     
       220   1471.115      -36905.046      2166.2464     -34738.8        155.66801    
       240   1471.9252     -36900.065      2167.4395     -34732.626      7.0489962    
Loop time of 0.0278262 on 1 procs for 20 steps with 495 atoms

timestep 0.263988
run 20 post no pre no
   Step          Temp          PotEng         KinEng         TotEng         Press     
       240   1471.9252     -36900.065      2167.4395     -34732.626      7.0489962    
       260   1483.2423     -36912.693      2184.1042     -34728.589      146.55536    
Loop time of 0.0283438 on 1 procs for 20 steps with 495 atoms

timestep 0.267398
run 20 post no pre no
   Step          Temp          PotEng         KinEng         TotEng         Press     
       260   1483.2423     -36912.693      2184.1042     -34728.589      146.55536    
       280   1441.9251     -36884.381      2123.2638     -34761.117      177.20527    
Loop time of 0.0281375 on 1 procs for 20 steps with 495 atoms

timestep 0.251561
run 20 post no pre no
   Step          Temp          PotEng         KinEng         TotEng         Press     
       280   1441.9251     -36884.381      2123.2638     -34761.117      177.20527    
       300   1516.6037     -36970.133      2233.2295     -34736.904      60.725628    
Loop time of 0.0287928 on 1 procs for 20 steps with 495 atoms

timestep 0.272589
run 20 post no pre no
   Step          Temp          PotEng         KinEng         TotEng         Press     
       300   1516.6037     -36970.133      2233.2295     -34736.904      60.725628    
       320   1479.7704     -36901.039      2178.9918     -34722.047      65.29345     
Loop time of 0.0287702 on 1 procs for 20 steps with 495 atoms

timestep 0.275333
run 20 post no pre no
   Step          Temp          PotEng         KinEng         TotEng         Press     
       320   1479.7704     -36901.039      2178.9918     -34722.047      65.29345     
       340   1502.0128     -36916.428      2211.7442     -34704.684      138.26904    
Loop time of 0.0293581 on 1 procs for 20 steps with 495 atoms

timestep 0.263086
run 20 post no pre no
   Step          Temp          PotEng         KinEng         TotEng         Press     
       340   1502.0128     -36916.428      2211.7442     -34704.684      138.26904    
       360   1534          -36929.697      2258.846      -34670.851      153.66138    
Loop time of 0.0305836 on 1 procs for 20 steps with 495 atoms

timestep 0.267239
run 20 post no pre no
   Step          Temp          PotEng         KinEng         TotEng         Press     
       360   1534          -36929.697      2258.846      -34670.851      153.66138    
       380   1443.2418     -36798.357      2125.2027     -34673.154      103.85246    
Loop time of 0.0293675 on 1 procs for 20 steps with 495 atoms

timestep 0.260123
run 20 post no pre no
   Step          Temp          PotEng         KinEng         TotEng         Press     
       380   1443.2418     -36798.357      2125.2027     -34673.154      103.85246    
       400   1521.531      -36918.532      2240.4851     -34678.047      69.713661    
Loop time of 0.0283867 on 1 procs for 20 steps with 495 atoms

timestep 0.269956
run 20 post no pre no
   Step          Temp          PotEng         KinEng         TotEng         Press     
       400   1521.531      -36918.532      2240.4851     -34678.047      69.713661    
       420   1512.3287     -36854.003      2226.9344     -34627.069      37.523893    
Loop time of 0.0275953 on 1 procs for 20 steps with 495 atoms

timestep 0.278047
run 20 post no pre no
   Step          Temp          PotEng         KinEng         TotEng         Press     
       420   1512.3287     -36854.003      2226.9344     -34627.069      37.523893    
       440   1595.8753     -36953.579      2349.9586     -34603.621      181.37085    
Loop time of 0.0282613 on 1 procs for 20 steps with 495 atoms

timestep 0.280860
run 20 post no pre no
   Step          Temp          PotEng         KinEng         TotEng         Press     
       440   1595.8753     -36953.579      2349.9586     -34603.621      181.37085    
       460   1518.0133     -36879.038      2235.3051     -34643.733      73.341387    
Loop time of 0.0282401 on 1 procs for 20 steps with 495 atoms

timestep 0.261937
run 20 post no pre no
   Step          Temp          PotEng         KinEng         TotEng         Press     
       460   1518.0133     -36879.038      2235.3051     -34643.733      73.341387    
       480   1554.5942     -36946.737      2289.1713     -34657.566      47.062345    
Loop time of 0.0284635 on 1 procs for 20 steps with 495 atoms

timestep 0.275809
run 20 post no pre no
   Step          Temp          PotEng         KinEng         TotEng         Press     
       480   1554.5942     -36946.737      2289.1713     -34657.566      47.062345    
       500   1529.8514     -36927.867      2252.7371     -34675.13       58.765731    
Loop time of 0.0273225 on 1 procs for 20 steps with 495 atoms

timestep 0.276644
run 20 post no pre no
   Step          Temp          PotEng         KinEng         TotEng         Press     
       500   1529.8514     -36927.867      2252.7371     -34675.13       58.765731    
       520   1594.9684     -37027.729      2348.6232     -34679.105      239.03805    
Loop time of 0.0273846 on 1 procs for 20 steps with 495 atoms

timestep 0.285624
run 20 post no pre no
   Step          Temp          PotEng         KinEng         TotEng         Press     
       520   1594.9684     -37027.729      2348.6232     -34679.105      239.03805    
       540   1567.021      -36917.722      2307.47       -34610.252     -52.082741    
Loop time of 0.0285367 on 1 procs for 20 steps with 495 atoms

timestep 0.280005
run 20 post no pre no
   Step          Temp          PotEng         KinEng         TotEng         Press     
       540   1567.021      -36917.722      2307.47       -34610.252     -52.082741    
       560   1566.7837     -36915.825      2307.1206     -34608.705     -1.0629318    
Loop time of 0.028534 on 1 procs for 20 steps with 495 atoms

timestep 0.280518
run 20 post no pre no
   Step          Temp          PotEng         KinEng         TotEng         Press     
       560   1566.7837     -36915.825      2307.1206     -34608.705     -1.0629318    
       580   1612.3871     -37023.659      2374.2725     -34649.386      164.46138    
Loop time of 0.0277162 on 1 procs for 20 steps with 495 atoms

timestep 0.280463
run 20 post no pre no
   Step          Temp          PotEng         KinEng         TotEng         Press     
       580   1612.3871     -37023.659      2374.2725     -34649.386      164.46138    
       600   1553.2728     -36908.366      2287.2255     -34621.141      156.08       
Loop time of 0.0273169 on 1 procs for 20 steps with 495 atoms

timestep 0.277335
run 20 post no pre no
   Step          Temp          PotEng         KinEng         TotEng         Press     
       600   1553.2728     -36908.366      2287.2255     -34621.141      156.08       
       620   1494.5457     -36921.954      2200.7487     -34721.205      74.353547    
Loop time of 0.0277813 on 1 procs for 20 steps with 495 atoms

timestep 0.268342
run 20 post no pre no
   Step          Temp          PotEng         KinEng         TotEng         Press     
       620   1494.5457     -36921.954      2200.7487     -34721.205      74.353547    
       640   1524.8317     -36999.03       2245.3455     -34753.685      48.12029     
Loop time of 0.0293061 on 1 procs for 20 steps with 495 atoms

timestep 0.281970
run 20 post no pre no
   Step          Temp          PotEng         KinEng         TotEng         Press     
       640   1524.8317     -36999.03       2245.3455     -34753.685      48.12029     
       660   1503.6794     -36934.982      2214.1983     -34720.784      192.32233    
Loop time of 0.026967 on 1 procs for 20 steps with 495 atoms

timestep 0.271700
run 20 post no pre no
   Step          Temp          PotEng         KinEng         TotEng         Press     
       660   1503.6794     -36934.982      2214.1983     -34720.784      192.32233    
       680   1489.5635     -36897.63       2193.4122     -34704.218      78.071253    
Loop time of 0.0273566 on 1 procs for 20 steps with 495 atoms

timestep 0.276915
run 20 post no pre no
   Step          Temp          PotEng         KinEng         TotEng         Press     
       680   1489.5635     -36897.63       2193.4122     -34704.218      78.071253    
       700   1478.4568     -36899.442      2177.0574     -34722.385     -18.906637    
Loop time of 0.0274806 on 1 procs for 20 steps with 495 atoms

timestep 0.277804
run 20 post no pre no
   Step          Temp          PotEng         KinEng         TotEng         Press     
       700   1478.4568     -36899.442      2177.0574     -34722.385     -18.906637    
       720   1507.141      -36963.15       2219.2955     -34743.855      139.59396    
Loop time of 0.0284764 on 1 procs for 20 steps with 495 atoms

timestep 0.267427
run 20 post no pre no
   Step          Temp          PotEng         KinEng         TotEng         Press     
       720   1507.141      -36963.15       2219.2955     -34743.855      139.59396    
       740   1505.3344     -36955.567      2216.6352     -34738.932      229.11273    
Loop time of 0.0278532 on 1 procs for 20 steps with 495 atoms

timestep 0.277305
run 20 post no pre no
   Step          Temp          PotEng         KinEng         TotEng         Press     
       740   1505.3344     -36955.567      2216.6352     -34738.932      229.11273    
       760   1494.1254     -36943.797      2200.1298     -34743.667      27.603951    
Loop time of 0.0278669 on 1 procs for 20 steps with 495 atoms

timestep 0.279210
run 20 post no pre no
   Step          Temp          PotEng         KinEng         TotEng         Press     
       760   1494.1254     -36943.797      2200.1298     -34743.667      27.603951    
       780   1476.4028     -36968.516      2174.033      -34794.483      11.163255    
Loop time of 0.0274571 on 1 procs for 20 steps with 495 atoms

timestep 0.274201
run 20 post no pre no
   Step          Temp          PotEng         KinEng         TotEng         Press     
       780   1476.4028     -36968.516      2174.033      -34794.483      11.163255    
       800   1439.6235     -36908.318      2119.8746     -34788.444      165.79187    
Loop time of 0.0272116 on 1 procs for 20 steps with 495 atoms

timestep 0.283678
run 20 post no pre no
   Step          Temp          PotEng         KinEng         TotEng         Press     
       800   1439.6235     -36908.318      2119.8746     -34788.444      165.79187    
       820   1469.2431     -36971.606      2163.4901     -34808.116      113.39166    
Loop time of 0.0300368 on 1 procs for 20 steps with 495 atoms

timestep 0.286053
run 20 post no pre no
   Step          Temp          PotEng         KinEng         TotEng         Press     
       820   1469.2431     -36971.606      2163.4901     -34808.116      113.39166    
       840   1437.5293     -36983.373      2116.7909     -34866.582      50.138366    
Loop time of 0.0307905 on 1 procs for 20 steps with 495 atoms

timestep 0.279643
run 20 post no pre no
   Step          Temp          PotEng         KinEng         TotEng         Press     
       840   1437.5293     -36983.373      2116.7909     -34866.582      50.138366    
       860   1425.0119     -36991.812      2098.3588     -34893.454     -13.002167    
Loop time of 0.0336106 on 1 procs for 20 steps with 495 atoms

timestep 0.284643
run 20 post no pre no
   Step          Temp          PotEng         KinEng         TotEng         Press     
       860   1425.0119     -36991.812      2098.3588     -34893.454     -13.002167    
       880   1388.5078     -36956.675      2044.6058     -34912.069      255.46957    
Loop time of 0.0326736 on 1 procs for 20 steps with 495 atoms

timestep 0.266102
run 20 post no pre no
   Step          Temp          PotEng         KinEng         TotEng         Press     
       880   1388.5078     -36956.675      2044.6058     -34912.069      255.46957    
       900   1444.5777     -36989.155      2127.1699     -34861.985      100.82184    
Loop time of 0.0342129 on 1 procs for 20 steps with 495 atoms

timestep 0.261311
run 20 post no pre no
   Step          Temp          PotEng         KinEng         TotEng         Press     
       900   1444.5777     -36989.155      2127.1699     -34861.985      100.82184    
       920   1387.1833     -36878.56       2042.6554     -34835.904      49.616292    
Loop time of 0.0284753 on 1 procs for 20 steps with 495 atoms

timestep 0.265516
run 20 post no pre no
   Step          Temp          PotEng         KinEng         TotEng         Press     
       920   1387.1833     -36878.56       2042.6554     -34835.904      49.616292    
       940   1466.4198     -36976.41       2159.3327     -34817.077      59.72199     
Loop time of 0.0272083 on 1 procs for 20 steps with 495 atoms

timestep 0.267742
run 20 post no pre no
   Step          Temp          PotEng         KinEng         TotEng         Press     
       940   1466.4198     -36976.41       2159.3327     -34817.077      59.72199     
       960   1422.8405     -36887.262      2095.1614     -34792.101      103.40357    
Loop time of 0.028339 on 1 procs for 20 steps with 495 atoms

timestep 0.273272
run 20 post no pre no
   Step          Temp          PotEng         KinEng         TotEng         Press     
       960   1422.8405     -36887.262      2095.1614     -34792.101      103.40357    
       980   1469.8702     -36975.909      2164.4135     -34811.496      138.17759    
Loop time of 0.0270247 on 1 procs for 20 steps with 495 atoms

timestep 0.282306
run 20 post no pre no
   Step          Temp          PotEng         KinEng         TotEng         Press     
       980   1469.8702     -36975.909      2164.4135     -34811.496      138.17759    
      1000   1404.6051     -36912.728      2068.3094     -34844.419     -1.0669198    
Loop time of 0.0274761 on 1 procs for 20 steps with 495 atoms

timestep 0.283694
run 20 post no pre no
   Step          Temp          PotEng         KinEng         TotEng         Press     
      1000   1404.6051     -36912.728      2068.3094     -34844.419     -1.0669198    
      1020   1416.3885     -36930.919      2085.6606     -34845.258      157.15661    
Loop time of 0.0279379 on 1 procs for 20 steps with 495 atoms

timestep 0.272882
run 20 post no pre no
   Step          Temp          PotEng         KinEng         TotEng         Press     
      1020   1416.3885     -36930.919      2085.6606     -34845.258      157.15661    
      1040   1445.2006     -36933.969      2128.0871     -34805.882     -16.590088    
Loop time of 0.0275888 on 1 procs for 20 steps with 495 atoms

timestep 0.264619
run 20 post no pre no
   Step          Temp          PotEng         KinEng         TotEng         Press     
      1040   1445.2006     -36933.969      2128.0871     -34805.882     -16.590088    
      1060   1460.6821     -36976.92       2150.8839     -34826.036      121.91042    
Loop time of 0.0276413 on 1 procs for 20 steps with 495 atoms

timestep 0.270133
run 20 post no pre no
   Step          Temp          PotEng         KinEng         TotEng         Press     
      1060   1460.6821     -36976.92       2150.8839     -34826.036      121.91042    
      1080   1467.8654     -36968.577      2161.4615     -34807.115      84.012518    
Loop time of 0.0262951 on 1 procs for 20 steps with 495 atoms

timestep 0.258836
run 20 post no pre no
   Step          Temp          PotEng         KinEng         TotEng         Press     
      1080   1467.8654     -36968.577      2161.4615     -34807.115      84.012518    
      1100   1495.9481     -36963.768      2202.8138     -34760.954      179.33961    
Loop time of 0.0279575 on 1 procs for 20 steps with 495 atoms

timestep 0.263604
run 20 post no pre no
   Step          Temp          PotEng         KinEng         TotEng         Press     
      1100   1495.9481     -36963.768      2202.8138     -34760.954      179.33961    
      1120   1471.0387     -36911.731      2166.1342     -34745.597     -9.6698959    
Loop time of 0.0281667 on 1 procs for 20 steps with 495 atoms

timestep 0.276602
run 20 post no pre no
   Step          Temp          PotEng         KinEng         TotEng         Press     
      1120   1471.0387     -36911.731      2166.1342     -34745.597     -9.6698959    
      1140   1542.3845     -36990.514      2271.1922     -34719.321      200.95292    
Loop time of 0.0279795 on 1 procs for 20 steps with 495 atoms

timestep 0.277605
run 20 post no pre no
   Step          Temp          PotEng         KinEng         TotEng         Press     
      1140   1542.3845     -36990.514      2271.1922     -34719.321      200.95292    
      1160   1521.5904     -36963.262      2240.5726     -34722.689      132.04039    
Loop time of 0.0273068 on 1 procs for 20 steps with 495 atoms

timestep 0.250352
run 20 post no pre no
   Step          Temp          PotEng         KinEng         TotEng         Press     
      1160   1521.5904     -36963.262      2240.5726     -34722.689      132.04039    
      1180   1521.0154     -36994.033      2239.7258     -34754.307      181.91693    
Loop time of 0.0273341 on 1 procs for 20 steps with 495 atoms

timestep 0.267652
run 20 post no pre no
   Step          Temp          PotEng         KinEng         TotEng         Press     
      1180   1521.0154     -36994.033      2239.7258     -34754.307      181.91693    
      1200   1496.1054     -36963.112      2203.0453     -34760.066      63.752203    
Loop time of 0.0261875 on 1 procs for 20 steps with 495 atoms

timestep 0.273056
run 20 post no pre no
   Step          Temp          PotEng         KinEng         TotEng         Press     
      1200   1496.1054     -36963.112      2203.0453     -34760.066      63.752203    
      1220   1455.0505     -36890.192      2142.5912     -34747.601      127.80818    
Loop time of 0.0282029 on 1 procs for 20 steps with 495 atoms

timestep 0.269746
run 20 post no pre no
   Step          Temp          PotEng         KinEng         TotEng         Press     
      1220   1455.0505     -36890.192      2142.5912     -34747.601      127.80818    
      1240   1497.9841     -37023.22       2205.8117     -34817.409     -9.2935299    
Loop time of 0.0273427 on 1 procs for 20 steps with 495 atoms

timestep 0.275953
run 20 post no pre no
   Step          Temp          PotEng         KinEng         TotEng         Press     
      1240   1497.9841     -37023.22       2205.8117     -34817.409     -9.2935299    
      1260   1442.4852     -36983.336      2124.0885     -34859.248      186.76193    
Loop time of 0.0268368 on 1 procs for 20 steps with 495 atoms

timestep 0.266162
run 20 post no pre no
   Step          Temp          PotEng         KinEng         TotEng         Press     
      1260   1442.4852     -36983.336      2124.0885     -34859.248      186.76193    
      1280   1408.4701     -36927.66       2074.0006     -34853.659      104.25097    
Loop time of 0.0275333 on 1 procs for 20 steps with 495 atoms

timestep 0.255813
run 20 post no pre no
   Step          Temp          PotEng         KinEng         TotEng         Press     
      1280   1408.4701     -36927.66       2074.0006     -34853.659      104.25097    
      1300   1439.1234     -36983.831      2119.1383     -34864.693      73.732376    
Loop time of 0.0278629 on 1 procs for 20 steps with 495 atoms

timestep 0.268737
run 20 post no pre no
   Step          Temp          PotEng         KinEng         TotEng         Press     
      1300   1439.1234     -36983.831      2119.1383     -34864.693      73.732376    
      1320   1474.8654     -36950.233      2171.769      -34778.464      71.819929    
Loop time of 0.027053 on 1 procs for 20 steps with 495 atoms

timestep 0.270983
run 20 post no pre no
   Step          Temp          PotEng         KinEng         TotEng         Press     
      1320   1474.8654     -36950.233      2171.769      -34778.464      71.819929    
      1340   1466.514      -36912.976      2159.4714     -34753.504      166.36145    
Loop time of 0.0271488 on 1 procs for 20 steps with 495 atoms

timestep 0.266357
run 20 post no pre no
   Step          Temp          PotEng         KinEng         TotEng         Press     
      1340   1466.514      -36912.976      2159.4714     -34753.504      166.36145    
      1360   1476.3445     -36984.018      2173.947      -34810.071      12.105993    
Loop time of 0.0270305 on 1 procs for 20 steps with 495 atoms

timestep 0.276386
run 20 post no pre no
   Step          Temp          PotEng         KinEng         TotEng         Press     
      1360   1476.3445     -36984.018      2173.947      -34810.071      12.105993    
      1380   1439.365      -36957.35       2119.4939     -34837.856      97.117175    
Loop time of 0.0281736 on 1 procs for 20 steps with 495 atoms

timestep 0.264484
run 20 post no pre no
   Step          Temp          PotEng         KinEng         TotEng         Press     
      1380   1439.365      -36957.35       2119.4939     -34837.856      97.117175    
      1400   1432.0036     -36977.147      2108.6542     -34868.492      150.6459     
Loop time of 0.0263445 on 1 procs for 20 steps with 495 atoms

timestep 0.271416
run 20 post no pre no
   Step          Temp          PotEng         KinEng         TotEng         Press     
      1400   1432.0036     -36977.147      2108.6542     -34868.492      150.6459     
      1420   1424.2117     -36962.918      2097.1804     -34865.737      55.274254    
Loop time of 0.0282419 on 1 procs for 20 steps with 495 atoms

timestep 0.278894
run 20 post no pre no
   Step          Temp          PotEng         KinEng         TotEng         Press     
      1420   1424.2117     -36962.918      2097.1804     -34865.737      55.274254    
      1440   1434.5206     -36951.333      2112.3605     -34838.972      66.916268    
Loop time of 0.0267804 on 1 procs for 20 steps with 495 atoms

timestep 0.262342
run 20 post no pre no
   Step          Temp          PotEng         KinEng         TotEng         Press     
      1440   1434.5206     -36951.333      2112.3605     -34838.972      66.916268    
      1460   1383.3456     -36898.113      2037.0043     -34861.109      54.647376    
Loop time of 0.0275619 on 1 procs for 20 steps with 495 atoms

timestep 0.271643
run 20 post no pre no
   Step          Temp          PotEng         KinEng         TotEng         Press     
      1460   1383.3456     -36898.113      2037.0043     -34861.109      54.647376    
      1480   1402.4483     -36953.014      2065.1334     -34887.881      118.54314    
Loop time of 0.0267699 on 1 procs for 20 steps with 495 atoms

timestep 0.272305
run 20 post no pre no
   Step          Temp          PotEng         KinEng         TotEng         Press     
      1480   1402.4483     -36953.014      2065.1334     -34887.881      118.54314    
      1500   1375.6429     -36882.051      2025.6619     -34856.389      64.115065    
Loop time of 0.028414 on 1 procs for 20 steps with 495 atoms

timestep 0.272170
run 20 post no pre no
   Step          Temp          PotEng         KinEng         TotEng         Press     
      1500   1375.6429     -36882.051      2025.6619     -34856.389      64.115065    
      1520   1421.6879     -36956.096      2093.464      -34862.632      2.4125007    
Loop time of 0.0257247 on 1 procs for 20 steps with 495 atoms

timestep 0.270555
run 20 post no pre no
   Step          Temp          PotEng         KinEng         TotEng         Press     
      1520   1421.6879     -36956.096      2093.464      -34862.632      2.4125007    
      1540   1416.7963     -36857.446      2086.2611     -34771.185      87.591351    
Loop time of 0.0273636 on 1 procs for 20 steps with 495 atoms

timestep 0.258252
run 20 post no pre no
   Step          Temp          PotEng         KinEng         TotEng         Press     
      1540   1416.7963     -36857.446      2086.2611     -34771.185      87.591351    
      1560   1451.4634     -36864.847      2137.3092     -34727.538      158.47099    
Loop time of 0.0277963 on 1 procs for 20 steps with 495 atoms

timestep 0.268841
run 20 post no pre no
   Step          Temp          PotEng         KinEng         TotEng         Press     
      1560   1451.4634     -36864.847      2137.3092     -34727.538      158.47099    
      1580   1391.1633     -36832.97       2048.516      -34784.454      98.787273    
Loop time of 0.0270797 on 1 procs for 20 steps with 495 atoms

timestep 0.259921
run 20 post no pre no
   Step          Temp          PotEng         KinEng         TotEng         Press     
      1580   1391.1633     -36832.97       2048.516      -34784.454      98.787273    
      1600   1449.5963     -36977.276      2134.5598     -34842.716      81.662266    
Loop time of 0.028018 on 1 procs for 20 steps with 495 atoms

timestep 0.272972
run 20 post no pre no
   Step          Temp          PotEng         KinEng         TotEng         Press     
      1600   1449.5963     -36977.276      2134.5598     -34842.716      81.662266    
      1620   1353.5383     -36830.59       1993.1124     -34837.478      34.220677    
Loop time of 0.0267148 on 1 procs for 20 steps with 495 atoms

timestep 0.267959
run 20 post no pre no
   Step          Temp          PotEng         KinEng         TotEng         Press     
      1620   1353.5383     -36830.59       1993.1124     -34837.478      34.220677    
      1640   1485.8485     -37015.438      2187.9419     -34827.496      221.97299    
Loop time of 0.0280308 on 1 procs for 20 steps with 495 atoms

timestep 0.269095
run 20 post no pre no
   Step          Temp          PotEng         KinEng         TotEng         Press     
      1640   1485.8485     -37015.438      2187.9419     -34827.496      221.97299    
      1660   1420.4778     -36909.226      2091.6822     -34817.544     -95.591065    
Loop time of 0.0266632 on 1 procs for 20 steps with 495 atoms

timestep 0.267329
run 20 post no pre no
   Step          Temp          PotEng         KinEng         TotEng         Press     
      1660   1420.4778     -36909.226      2091.6822     -34817.544     -95.591065    
      1680   1446.8424     -36945.466      2130.5047     -34814.961      242.61811    
Loop time of 0.0267923 on 1 procs for 20 steps with 495 atoms

timestep 0.271254
run 20 post no pre no
   Step          Temp          PotEng         KinEng         TotEng         Press     
      1680   1446.8424     -36945.466      2130.5047     -34814.961      242.61811    
      1700   1418.1233     -36938.959      2088.2151     -34850.744      36.350176    
Loop time of 0.0272429 on 1 procs for 20 steps with 495 atoms

timestep 0.271994
run 20 post no pre no
   Step          Temp          PotEng         KinEng         TotEng         Press     
      1700   1418.1233     -36938.959      2088.2151     -34850.744      36.350176    
      1720   1451.7482     -36989.659      2137.7285     -34851.93       111.6406     
Loop time of 0.0266713 on 1 procs for 20 steps with 495 atoms

timestep 0.278227
run 20 post no pre no
   Step          Temp          PotEng         KinEng         TotEng         Press     
      1720   1451.7482     -36989.659      2137.7285     -34851.93       111.6406     
      1740   1398.0644     -36899.312      2058.678      -34840.634     -64.576475    
Loop time of 0.0286763 on 1 procs for 20 steps with 495 atoms

timestep 0.273738
run 20 post no pre no
   Step          Temp          PotEng         KinEng         TotEng         Press     
      1740   1398.0644     -36899.312      2058.678      -34840.634     -64.576475    
      1760   1418.1061     -36941.012      2088.1898     -34852.822      139.26905    
Loop time of 0.0281409 on 1 procs for 20 steps with 495 atoms

timestep 0.271058
run 20 post no pre no
   Step          Temp          PotEng         KinEng         TotEng         Press     
      1760   1418.1061     -36941.012      2088.1898     -34852.822      139.26905    
      1780   1449.3929     -36961.799      2134.2603     -34827.538      50.223926    
Loop time of 0.0255065 on 1 procs for 20 steps with 495 atoms

timestep 0.281982
run 20 post no pre no
   Step          Temp          PotEng         KinEng         TotEng         Press     
      1780   1449.3929     -36961.799      2134.2603     -34827.538      50.223926    
      1800   1416.3391     -36924.019      2085.5879     -34838.431      87.072266    
Loop time of 0.027574 on 1 procs for 20 steps with 495 atoms

timestep 0.281990
run 20 post no pre no
   Step          Temp          PotEng         KinEng         TotEng         Press     
      1800   1416.3391     -36924.019      2085.5879     -34838.431      87.072266    
      1820   1454.8238     -36946.537      2142.2574     -34804.279     -8.2221446    
Loop time of 0.0268222 on 1 procs for 20 steps with 495 atoms

timestep 0.277167
run 20 post no pre no
   Step          Temp          PotEng         KinEng         TotEng         Press     
      1820   1454.8238     -36946.537      2142.2574     -34804.279     -8.2221446    
      1840   1477.8027     -36878.203      2176.0942     -34702.109      169.25033    
Loop time of 0.026587 on 1 procs for 20 steps with 495 atoms

timestep 0.276192
run 20 post no pre no
   Step          Temp          PotEng         KinEng         TotEng         Press     
      1840   1477.8027     -36878.203      2176.0942     -34702.109      169.25033    
      1860   1509.908      -36899.079      2223.3699     -34675.709      38.474917    
Loop time of 0.0273709 on 1 procs for 20 steps with 495 atoms

timestep 0.273535
run 20 post no pre no
   Step          Temp          PotEng         KinEng         TotEng         Press     
      1860   1509.908      -36899.079      2223.3699     -34675.709      38.474917    
      1880   1501.9561     -36944.049      2211.6606     -34732.389      90.067415    
Loop time of 0.0266582 on 1 procs for 20 steps with 495 atoms

timestep 0.278053
run 20 post no pre no
   Step          Temp          PotEng         KinEng         TotEng         Press     
      1880   1501.9561     -36944.049      2211.6606     -34732.389      90.067415    
      1900   1466.4299     -36899.603      2159.3475     -34740.255      54.320301    
Loop time of 0.0262993 on 1 procs for 20 steps with 495 atoms

timestep 0.270803
run 20 post no pre no
   Step          Temp          PotEng         KinEng         TotEng         Press     
      1900   1466.4299     -36899.603      2159.3475     -34740.255      54.320301    
      1920   1466.32       -36940.012      2159.1858     -34780.826      211.98453    
Loop time of 0.0268034 on 1 procs for 20 steps with 495 atoms

timestep 0.272430
run 20 post no pre no
   Step          Temp          PotEng         KinEng         TotEng         Press     
      1920   1466.32       -36940.012      2159.1858     -34780.826      211.98453    
      1940   1452.6833     -36950.917      2139.1055     -34811.811     -31.103715    
Loop time of 0.0272478 on 1 procs for 20 steps with 495 atoms

timestep 0.273983
run 20 post no pre no
   Step          Temp          PotEng         KinEng         TotEng         Press     
      1940   1452.6833     -36950.917      2139.1055     -34811.811     -31.103715    
      1960   1441.1808     -36927.008      2122.1678     -34804.841      62.785731    
Loop time of 0.0265534 on 1 procs for 20 steps with 495 atoms

timestep 0.281025
run 20 post no pre no
   Step          Temp          PotEng         KinEng         TotEng         Press     
      1960   1441.1808     -36927.008      2122.1678     -34804.841      62.785731    
      1980   1440.7381     -36931.03       2121.5159     -34809.514      171.51035    
Loop time of 0.026708 on 1 procs for 20 steps with 495 atoms

timestep 0.270123
run 20 post no pre no
   Step          Temp          PotEng         KinEng         TotEng         Press     
      1980   1440.7381     -36931.03       2121.5159     -34809.514      171.51035    
      2000   1473.1463     -36930.044      2169.2376     -34760.807      81.430236    
Loop time of 0.0281078 on 1 procs for 20 steps with 495 atoms

unfix q
fix q all qeq/reaxff 1 0.0 10.0 0.0001 reaxff maxiter 200
run 0 post no pre no
   Step          Temp          PotEng         KinEng         TotEng         Press     
      2000   1473.1463     -36930.044      2169.2376     -34760.807      81.430236    
Loop time of 9.45e-07 on 1 procs for 0 steps with 495 atoms

unfix q
fix q all qeq/reaxff 1 0.0 10.0 1e-06 reaxff maxiter 200
run 0 post no pre no
   Step          Temp          PotEng         KinEng         TotEng         Press     
      2000   1473.1463     -36930.044      2169.2376     -34760.807      81.430236    
Loop time of 7.95e-07 on 1 procs for 0 steps with 495 atoms

unfix q
fix q all qeq/reaxff 1 0.0 10.0 0.0001 reaxff maxiter 200
run 0 post no pre no
   Step          Temp          PotEng         KinEng         TotEng         Press     
      2000   1473.1463     -36930.044      2169.2376     -34760.807      81.430236    
Loop time of 7.15e-07 on 1 procs for 0 steps with 495 atoms

unfix q
fix q all qeq/reaxff 1 0.0 10.0 0.0005 reaxff maxiter 200
timestep 0.271275
run 20 post no pre no
   Step          Temp          PotEng         KinEng         TotEng         Press     
      2000   1473.1463     -36930.044      2169.2376     -34760.807      81.430236    
      2020   1488.3421     -36961.748      2191.6137     -34770.134     -12.167112    
Loop time of 0.027073 on 1 procs for 20 steps with 495 atoms

timestep 0.275413
run 20 post no pre no
   Step          Temp          PotEng         KinEng         TotEng         Press     
      2020   1488.3421     -36961.748      2191.6137     -34770.134     -12.167112    
      2040   1442.0333     -36959.921      2123.4231     -34836.498      40.39765     
Loop time of 0.0269972 on 1 procs for 20 steps with 495 atoms

timestep 0.279812
run 20 post no pre no
   Step          Temp          PotEng         KinEng         TotEng         Press     
      2040   1442.0333     -36959.921      2123.4231     -34836.498      40.39765     
      2060   1454.7847     -36997.67       2142.1998     -34855.47       186.34893    
Loop time of 0.0270643 on 1 procs for 20 steps with 495 atoms

timestep 0.277689
run 20 post no pre no
   Step          Temp          PotEng         KinEng         TotEng         Press     
      2060   1454.7847     -36997.67       2142.1998     -34855.47       186.34893    
      2080   1440.1546     -36991.848      2120.6567     -34871.192      28.796409    
Loop time of 0.0259405 on 1 procs for 20 steps with 495 atoms

timestep 0.274624
run 20 post no pre no
   Step          Temp          PotEng         KinEng         TotEng         Press     
      2080   1440.1546     -36991.848      2120.6567     -34871.192      28.796409    
      2100   1424.7527     -36930.912      2097.9771     -34832.935      15.594646    
Loop time of 0.028061 on 1 procs for 20 steps with 495 atoms

timestep 0.277455
run 20 post no pre no
   Step          Temp          PotEng         KinEng         TotEng         Press     
      2100   1424.7527     -36930.912      2097.9771     -34832.935      15.594646    
      2120   1425.3995     -36964.696      2098.9295     -34865.766      81.126331    
Loop time of 0.0280689 on 1 procs for 20 steps with 495 atoms

timestep 0.275026
run 20 post no pre no
   Step          Temp          PotEng         KinEng         TotEng         Press     
      2120   1425.3995     -36964.696      2098.9295     -34865.766      81.126331    
      2140   1410.4263     -36936.114      2076.8812     -34859.233      195.53079    
Loop time of 0.0282597 on 1 procs for 20 steps with 495 atoms

timestep 0.273481
run 20 post no pre no
   Step          Temp          PotEng         KinEng         TotEng         Press     
      2140   1410.4263     -36936.114      2076.8812     -34859.233      195.53079    
      2160   1448.8485     -36985.558      2133.4586     -34852.099     -36.024444    
Loop time of 0.0276616 on 1 procs for 20 steps with 495 atoms

timestep 0.275434
run 20 post no pre no
   Step          Temp          PotEng         KinEng         TotEng         Press     
      2160   1448.8485     -36985.558      2133.4586     -34852.099     -36.024444    
      2180   1466.9244     -36907.523      2160.0757     -34747.447      101.34437    
Loop time of 0.0266039 on 1 procs for 20 steps with 495 atoms

timestep 0.270618
run 20 post no pre no
   Step          Temp          PotEng         KinEng         TotEng         Press     
      2180   1466.9244     -36907.523      2160.0757     -34747.447      101.34437    
      2200   1485.1715     -36934.376      2186.945      -34747.431      114.91433    
Loop time of 0.0276868 on 1 procs for 20 steps with 495 atoms

timestep 0.273195
run 20 post no pre no
   Step          Temp          PotEng         KinEng         TotEng         Press     
      2200   1485.1715     -36934.376      2186.945      -34747.431      114.91433    
      2220   1555.2903     -36945.336      2290.1963     -34655.14       143.37249    
Loop time of 0.0256262 on 1 procs for 20 steps with 495 atoms

timestep 0.252809
run 20 post no pre no
   Step          Temp          PotEng         KinEng         TotEng         Press     
      2220   1555.2903     -36945.336      2290.1963     -34655.14       143.37249    
      2240   1487.5147     -36886.111      2190.3955     -34695.715     -52.879018    
Loop time of 0.026997 on 1 procs for 20 steps with 495 atoms

timestep 0.269041
run 20 post no pre no
   Step          Temp          PotEng         KinEng         TotEng         Press     
      2240   1487.5147     -36886.111      2190.3955     -34695.715     -52.879018    
      2260   1533.179      -36934.492      2257.637      -34676.855      182.45632    
Loop time of 0.0273237 on 1 procs for 20 steps with 495 atoms

timestep 0.280838
run 20 post no pre no
   Step          Temp          PotEng         KinEng         TotEng         Press     
      2260   1533.179      -36934.492      2257.637      -34676.855      182.45632    
      2280   1469.8419     -36876.428      2164.3718     -34712.056      116.92304    
Loop time of 0.0261661 on 1 procs for 20 steps with 495 atoms

timestep 0.276852
run 20 post no pre no
   Step          Temp          PotEng         KinEng         TotEng         Press     
      2280   1469.8419     -36876.428      2164.3718     -34712.056      116.92304    
      2300   1464.8217     -36875.323      2156.9795     -34718.343      71.231774    
Loop time of 0.0279781 on 1 procs for 20 steps with 495 atoms

timestep 0.265812
run 20 post no pre no
   Step          Temp          PotEng         KinEng         TotEng         Press     
      2300   1464.8217     -36875.323      2156.9795     -34718.343      71.231774    
      2320   1527.1223     -36972.24       2248.7184     -34723.522      67.899917    
Loop time of 0.0269279 on 1 procs for 20 steps with 495 atoms

timestep 0.270686
run 20 post no pre no
   Step          Temp          PotEng         KinEng         TotEng         Press     
      2320   1527.1223     -36972.24       2248.7184     -34723.522      67.899917    
      2340   1468.8349     -36866.3        2162.889      -34703.411      165.17307    
Loop time of 0.0263674 on 1 procs for 20 steps with 495 atoms

timestep 0.268546
run 20 post no pre no
   Step          Temp          PotEng         KinEng         TotEng         Press     
      2340   1468.8349     -36866.3        2162.889      -34703.411      165.17307    
      2360   1514.4369     -36906.988      2230.0388     -34676.949      187.66318    
Loop time of 0.0267712 on 1 procs for 20 steps with 495 atoms

timestep 0.263436
run 20 post no pre no
   Step          Temp          PotEng         KinEng         TotEng         Press     
      2360   1514.4369     -36906.988      2230.0388     -34676.949      187.66318    
      2380   1565.631      -36991.059      2305.4232     -34685.636     -20.238711    
Loop time of 0.0263254 on 1 procs for 20 steps with 495 atoms

timestep 0.273887
run 20 post no pre no
   Step          Temp          PotEng         KinEng         TotEng         Press     
      2380   1565.631      -36991.059      2305.4232     -34685.636     -20.238711    
      2400   1539.1382     -36943.072      2266.412      -34676.66       164.28932    
Loop time of 0.026457 on 1 procs for 20 steps with 495 atoms

timestep 0.276913
run 20 post no pre no
   Step          Temp          PotEng         KinEng         TotEng         Press     
      2400   1539.1382     -36943.072      2266.412      -34676.66       164.28932    
      2420   1518.3985     -36960.935      2235.8724     -34725.063      59.334696    
Loop time of 0.0274094 on 1 procs for 20 steps with 495 atoms

timestep 0.291935
run 20 post no pre no
   Step          Temp          PotEng         KinEng         TotEng         Press     
      2420   1518.3985     -36960.935      2235.8724     -34725.063      59.334696    
      2440   1564.9125     -37016.005      2304.3652     -34711.64       148.23319    
Loop time of 0.0264938 on 1 procs for 20 steps with 495 atoms

timestep 0.289791
run 20 post no pre no
   Step          Temp          PotEng         KinEng         TotEng         Press     
      2440   1564.9125     -37016.005      2304.3652     -34711.64       148.23319    
      2460   1463.7337     -36946.459      2155.3774     -34791.081      16.458801    
Loop time of 0.0267868 on 1 procs for 20 steps with 495 atoms

timestep 0.285847
run 20 post no pre no
   Step          Temp          PotEng         KinEng         TotEng         Press     
      2460   1463.7337     -36946.459      2155.3774     -34791.081      16.458801    
      2480   1426.5491     -36919.901      2100.6224     -34819.279      136.575      
Loop time of 0.0266536 on 1 procs for 20 steps with 495 atoms

timestep 0.274148
run 20 post no pre no
   Step          Temp          PotEng         KinEng         TotEng         Press     
      2480   1426.5491     -36919.901      2100.6224     -34819.279      136.575      
      2500   1411.9638     -36956.777      2079.1452     -34877.632      86.708645    
Loop time of 0.0272671 on 1 procs for 20 steps with 495 atoms

timestep 0.284535
run 20 post no pre no
   Step          Temp          PotEng         KinEng         TotEng         Press     
      2500   1411.9638     -36956.777      2079.1452     -34877.632      86.708645    
      2520   1429.426      -36920.657      2104.8586     -34815.799      108.84462    
Loop time of 0.0273402 on 1 procs for 20 steps with 495 atoms

timestep 0.273165
run 20 post no pre no
   Step          Temp          PotEng         KinEng         TotEng         Press     
      2520   1429.426      -36920.657      2104.8586     -34815.799      108.84462    
      2540   1437.084      -36909.772      2116.1351     -34793.637      112.62736    
Loop time of 0.0277596 on 1 procs for 20 steps with 495 atoms

timestep 0.266931
run 20 post no pre no
   Step          Temp          PotEng         KinEng         TotEng         Press     
      2540   1437.084      -36909.772      2116.1351     -34793.637      112.62736    
      2560   1497.4545     -36986.316      2205.032      -34781.284      119.82599    
Loop time of 0.0281126 on 1 procs for 20 steps with 495 atoms

timestep 0.281379
run 20 post no pre no
   Step          Temp          PotEng         KinEng         TotEng         Press     
      2560   1497.4545     -36986.316      2205.032      -34781.284      119.82599    
      2580   1445.6193     -36902.55       2128.7036     -34773.847      115.02152    
Loop time of 0.0266773 on 1 procs for 20 steps with 495 atoms

timestep 0.281835
run 20 post no pre no
   Step          Temp          PotEng         KinEng         TotEng         Press     
      2580   1445.6193     -36902.55       2128.7036     -34773.847      115.02152    
      2600   1472.0847     -36920.435      2167.6744     -34752.761     -1.5769928    
Loop time of 0.0264469 on 1 procs for 20 steps with 495 atoms

timestep 0.275286
run 20 post no pre no
   Step          Temp          PotEng         KinEng         TotEng         Press     
      2600   1472.0847     -36920.435      2167.6744     -34752.761     -1.5769928    
      2620   1502.6476     -36975.41       2212.6789     -34762.731      144.55071    
Loop time of 0.0276801 on 1 procs for 20 steps with 495 atoms

timestep 0.271323
run 20 post no pre no
   Step          Temp          PotEng         KinEng         TotEng         Press     
      2620   1502.6476     -36975.41       2212.6789     -34762.731      144.55071    
      2640   1451.2829     -36921.381      2137.0433     -34784.338      121.49826    
Loop time of 0.0285908 on 1 procs for 20 steps with 495 atoms

timestep 0.276815
run 20 post no pre no
   Step          Temp          PotEng         KinEng         TotEng         Press     
      2640   1451.2829     -36921.381      2137.0433     -34784.338      121.49826    
      2660   1459.1381     -36939.338      2148.6103     -34790.727      107.48891    
Loop time of 0.0264691 on 1 procs for 20 steps with 495 atoms

timestep 0.272135
run 20 post no pre no
   Step          Temp          PotEng         KinEng         TotEng         Press     
      2660   1459.1381     -36939.338      2148.6103     -34790.727      107.48891    
      2680   1425.7452     -36867.538      2099.4385     -34768.099      19.567952    
Loop time of 0.0269912 on 1 procs for 20 steps with 495 atoms

timestep 0.275465
run 20 post no pre no
   Step          Temp          PotEng         KinEng         TotEng         Press     
      2680   1425.7452     -36867.538      2099.4385     -34768.099      19.567952    
      2700   1521.7921     -36982.631      2240.8695     -34741.762      212.85083    
Loop time of 0.0268871 on 1 procs for 20 steps with 495 atoms

timestep 0.274342
run 20 post no pre no
   Step          Temp          PotEng         KinEng         TotEng         Press     
      2700   1521.7921     -36982.631      2240.8695     -34741.762      212.85083    
      2720   1447.8207     -36883.924      2131.9451     -34751.979     -0.97072737   
Loop time of 0.0253054 on 1 procs for 20 steps with 495 atoms

timestep 0.271812
run 20 post no pre no
   Step          Temp          PotEng         KinEng         TotEng         Press     
      2720   1447.8207     -36883.924      2131.9451     -34751.979     -0.97072737   
      2740   1520.4578     -36982.337      2238.9048     -34743.433      36.502251    
Loop time of 0.0262903 on 1 procs for 20 steps with 495 atoms

timestep 0.275404
run 20 post no pre no
   Step          Temp          PotEng         KinEng         TotEng         Press     
      2740   1520.4578     -36982.337      2238.9048     -34743.433      36.502251    
      2760   1478.7815     -36956.704      2177.5356     -34779.168      60.536035    
Loop time of 0.0265019 on 1 procs for 20 steps with 495 atoms

timestep 0.282891
run 20 post no pre no
   Step          Temp          PotEng         KinEng         TotEng         Press     
      2760   1478.7815     -36956.704      2177.5356     -34779.168      60.536035    
      2780   1415.8744     -36917.041      2084.9036     -34832.138      171.16052    
Loop time of 0.0261066 on 1 procs for 20 steps with 495 atoms

timestep 0.280413
run 20 post no pre no
   Step          Temp          PotEng         KinEng         TotEng         Press     
      2780   1415.8744     -36917.041      2084.9036     -34832.138      171.16052    
      2800   1468.2247     -36962.1        2161.9905     -34800.11       37.986957    
Loop time of 0.0263691 on 1 procs for 20 steps with 495 atoms

timestep 0.275783
run 20 post no pre no
   Step          Temp          PotEng         KinEng         TotEng         Press     
      2800   1468.2247     -36962.1        2161.9905     -34800.11       37.986957    
      2820   1449.8463     -36924.591      2134.928      -34789.663      117.08305    
Loop time of 0.0264923 on 1 procs for 20 steps with 495 atoms

timestep 0.265573
run 20 post no pre no
   Step          Temp          PotEng         KinEng         TotEng         Press     
      2820   1449.8463     -36924.591      2134.928      -34789.663      117.08305    
      2840   1429.3562     -36882.868      2104.7558     -34778.112      54.658987    
Loop time of 0.0262602 on 1 procs for 20 steps with 495 atoms

timestep 0.267651
run 20 post no pre no
   Step          Temp          PotEng         KinEng         TotEng         Press     
      2840   1429.3562     -36882.868      2104.7558     -34778.112      54.658987    
      2860   1458.9254     -36906.451      2148.2971     -34758.154      182.31796    
Loop time of 0.0269069 on 1 procs for 20 steps with 495 atoms

timestep 0.260235
run 20 post no pre no
   Step          Temp          PotEng         KinEng         TotEng         Press     
      2860   1458.9254     -36906.451      2148.2971     -34758.154      182.31796    
      2880   1477.3951     -36968.916      2175.494      -34793.422      23.167245    
Loop time of 0.0271083 on 1 procs for 20 steps with 495 atoms

timestep 0.272447
run 20 post no pre no
   Step          Temp          PotEng         KinEng         TotEng         Press     
      2880   1477.3951     -36968.916      2175.494      -34793.422      23.167245    
      2900   1455.1384     -36900.411      2142.7207     -34757.69       132.91486    
Loop time of 0.0269764 on 1 procs for 20 steps with 495 atoms

timestep 0.257834
run 20 post no pre no
   Step          Temp          PotEng         KinEng         TotEng         Press     
      2900   1455.1384     -36900.411      2142.7207     -34757.69       132.91486    
      2920   1526.5004     -36984.105      2247.8027     -34736.303      31.38807     
Loop time of 0.0258004 on 1 procs for 20 steps with 495 atoms

timestep 0.271734
run 20 post no pre no
   Step          Temp          PotEng         KinEng         TotEng         Press     
      2920   1526.5004     -36984.105      2247.8027     -34736.303      31.38807     
      2940   1475.0106     -36909.406      2171.9828     -34737.423      240.26141    
Loop time of 0.0263058 on 1 procs for 20 steps with 495 atoms

timestep 0.264799
run 20 post no pre no
   Step          Temp          PotEng         KinEng         TotEng         Press     
      2940   1475.0106     -36909.406      2171.9828     -34737.423      240.26141    
      2960   1490.7661     -36921.786      2195.1832     -34726.603     -28.089171    
Loop time of 0.026432 on 1 procs for 20 steps with 495 atoms

timestep 0.269630
run 20 post no pre no
   Step          Temp          PotEng         KinEng         TotEng         Press     
      2960   1490.7661     -36921.786      2195.1832     -34726.603     -28.089171    
      2980   1536.3284     -36976.613      2262.2745     -34714.339      225.91814    
Loop time of 0.0270082 on 1 procs for 20 steps with 495 atoms

timestep 0.266908
run 20 post no pre no
   Step          Temp          PotEng         KinEng         TotEng         Press     
      2980   1536.3284     -36976.613      2262.2745     -34714.339      225.91814    
      3000   1461.3701     -36910.041      2151.8969     -34758.144     -16.620849    
Loop time of 0.026063 on 1 procs for 20 steps with 495 atoms

timestep 0.278162
run 20 post no pre no
   Step          Temp          PotEng         KinEng         TotEng         Press     
      3000   1461.3701     -36910.041      2151.8969     -34758.144     -16.620849    
      3020   1481.1011     -36943.737      2180.9513     -34762.785      174.5302     
Loop time of 0.0279141 on 1 procs for 20 steps with 495 atoms

timestep 0.275154
run 20 post no pre no
   Step          Temp          PotEng         KinEng         TotEng         Press     
      3020   1481.1011     -36943.737      2180.9513     -34762.785      174.5302     
      3040   1547.5082     -36972.355      2278.737      -34693.618      109.71425    
Loop time of 0.0263674 on 1 procs for 20 steps with 495 atoms

timestep 0.273638
run 20 post no pre no
   Step          Temp          PotEng         KinEng         TotEng         Press     
      3040   1547.5082     -36972.355      2278.737      -34693.618      109.71425    
      3060   1507.5552     -36917.664      2219.9054     -34697.758      122.49577    
Loop time of 0.0266841 on 1 procs for 20 steps with 495 atoms

timestep 0.271413
run 20 post no pre no
   Step          Temp          PotEng         KinEng         TotEng         Press     
      3060   1507.5552     -36917.664      2219.9054     -34697.758      122.49577    
      3080   1493.9491     -36872.237      2199.8702     -34672.367      3.0208104    
Loop time of 0.0271111 on 1 procs for 20 steps with 495 atoms

timestep 0.275413
run 20 post no pre no
   Step          Temp          PotEng         KinEng         TotEng         Press     
      3080   1493.9491     -36872.237      2199.8702     -34672.367      3.0208104    
      3100   1559.2269     -36959.316      2295.993      -34663.323      173.69412    
Loop time of 0.0255136 on 1 procs for 20 steps with 495 atoms

timestep 0.275079
run 20 post no pre no
   Step          Temp          PotEng         KinEng         TotEng         Press     
      3100   1559.2269     -36959.316      2295.993      -34663.323      173.69412    
      3120   1498.7498     -36891.104      2206.9393     -34684.165      66.982858    
Loop time of 0.026335 on 1 procs for 20 steps with 495 atoms

timestep 0.268943
run 20 post no pre no
   Step          Temp          PotEng         KinEng         TotEng         Press     
      3120   1498.7498     -36891.104      2206.9393     -34684.165      66.982858    
      3140   1417.0712     -36887.865      2086.6659     -34801.199      98.149083    
Loop time of 0.0260144 on 1 procs for 20 steps with 495 atoms

timestep 0.273744
run 20 post no pre no
   Step          Temp          PotEng         KinEng         TotEng         Press     
      3140   1417.0712     -36887.865      2086.6659     -34801.199      98.149083    
      3160   1470.7055     -36902.706      2165.6435     -34737.063      149.97054    
Loop time of 0.0263443 on 1 procs for 20 steps with 495 atoms

timestep 0.254737
run 20 post no pre no
   Step          Temp          PotEng         KinEng         TotEng         Press     
      3160   1470.7055     -36902.706      2165.6435     -34737.063      149.97054    
      3180   1495.8582     -36921.017      2202.6813     -34718.335      123.01064    
Loop time of 0.0274081 on 1 procs for 20 steps with 495 atoms

timestep 0.265593
run 20 post no pre no
   Step          Temp          PotEng         KinEng         TotEng         Press     
      3180   1495.8582     -36921.017      2202.6813     -34718.335      123.01064    
      3200   1493.2783     -36881.192      2198.8824     -34682.309      102.14822    
Loop time of 0.0268446 on 1 procs for 20 steps with 495 atoms

timestep 0.263812
run 20 post no pre no
   Step          Temp          PotEng         KinEng         TotEng         Press     
      3200   1493.2783     -36881.192      2198.8824     -34682.309      102.14822    
      3220   1503.4182     -36927.745      2213.8136     -34713.931      80.28256     
Loop time of 0.0277235 on 1 procs for 20 steps with 495 atoms

timestep 0.277135
run 20 post no pre no
   Step          Temp          PotEng         KinEng         TotEng         Press     
      3220   1503.4182     -36927.745      2213.8136     -34713.931      80.28256     
      3240   1541.253      -36946.312      2269.5262     -34676.786      83.18177     
Loop time of 0.0261448 on 1 procs for 20 steps with 495 atoms

timestep 0.280835
run 20 post no pre no
   Step          Temp          PotEng         KinEng         TotEng         Press     
      3240   1541.253      -36946.312      2269.5262     -34676.786      83.18177     
      3260   1506.8768     -36955.057      2218.9065     -34736.151      5.8742302    
Loop time of 0.0272302 on 1 procs for 20 steps with 495 atoms

timestep 0.283856
run 20 post no pre no
   Step          Temp          PotEng         KinEng         TotEng         Press     
      3260   1506.8768     -36955.057      2218.9065     -34736.151      5.8742302    
      3280   1508.6084     -36863.008      2221.4563     -34641.552      67.772487    
Loop time of 0.0254276 on 1 procs for 20 steps with 495 atoms

timestep 0.272216
run 20 post no pre no
   Step          Temp          PotEng         KinEng         TotEng         Press     
      3280   1508.6084     -36863.008      2221.4563     -34641.552      67.772487    
      3300   1531.0143     -36835.715      2254.4495     -34581.265      36.510701    
Loop time of 0.0274179 on 1 procs for 20 steps with 495 atoms

timestep 0.264422
run 20 post no pre no
   Step          Temp          PotEng         KinEng         TotEng         Press     
      3300   1531.0143     -36835.715      2254.4495     -34581.265      36.510701    
      3320   1535.3368     -36876.169      2260.8144     -34615.355      205.32265    
Loop time of 0.0260783 on 1 procs for 20 steps with 495 atoms

timestep 0.264653
run 20 post no pre no
   Step          Temp          PotEng         KinEng         TotEng         Press     
      3320   1535.3368     -36876.169      2260.8144     -34615.355      205.32265    
      3340   1510.229      -36839.979      2223.8426     -34616.137     -44.13819     
Loop time of 0.0264505 on 1 procs for 20 steps with 495 atoms

timestep 0.259355
run 20 post no pre no
   Step          Temp          PotEng         KinEng         TotEng         Press     
      3340   1510.229      -36839.979      2223.8426     -34616.137     -44.13819     
      3360   1528.9326     -36834.89       2251.3841     -34583.506      189.95165    
Loop time of 0.0281873 on 1 procs for 20 steps with 495 atoms

timestep 0.266786
run 20 post no pre no
   Step          Temp          PotEng         KinEng         TotEng         Press     
      3360   1528.9326     -36834.89       2251.3841     -34583.506      189.95165    
      3380   1531.028      -36870.611      2254.4696     -34616.141      25.041156    
Loop time of 0.0280016 on 1 procs for 20 steps with 495 atoms

timestep 0.266333
run 20 post no pre no
   Step          Temp          PotEng         KinEng         TotEng         Press     
      3380   1531.028      -36870.611      2254.4696     -34616.141      25.041156    
      3400   1632.4436     -36922.158      2403.8062     -34518.351      249.56369    
Loop time of 0.0265666 on 1 procs for 20 steps with 495 atoms

timestep 0.265371
run 20 post no pre no
   Step          Temp          PotEng         KinEng         TotEng         Press     
      3400   1632.4436     -36922.158      2403.8062     -34518.351      249.56369    
      3420   1552.2037     -36835.539      2285.6513     -34549.888     -92.932691    
Loop time of 0.0261925 on 1 procs for 20 steps with 495 atoms

timestep 0.266613
run 20 post no pre no
   Step          Temp          PotEng         KinEng         TotEng         Press     
      3420   1552.2037     -36835.539      2285.6513     -34549.888     -92.932691    
      3440   1608.431      -36853.442      2368.4471     -34484.995      261.45051    
Loop time of 0.0277586 on 1 procs for 20 steps with 495 atoms

timestep 0.251329
run 20 post no pre no
   Step          Temp          PotEng         KinEng         TotEng         Press     
      3440   1608.431      -36853.442      2368.4471     -34484.995      261.45051    
      3460   1595.4058     -36842.38       2349.2673     -34493.113     -23.989444    
Loop time of 0.0265841 on 1 procs for 20 steps with 495 atoms

timestep 0.267182
run 20 post no pre no
   Step          Temp          PotEng         KinEng         TotEng         Press     
      3460   1595.4058     -36842.38       2349.2673     -34493.113     -23.989444    
      3480   1621.0424     -36888.862      2387.0177     -34501.844      182.91978    
Loop time of 0.0275929 on 1 procs for 20 steps with 495 atoms

timestep 0.266591
run 20 post no pre no
   Step          Temp          PotEng         KinEng         TotEng         Press     
      3480   1621.0424     -36888.862      2387.0177     -34501.844      182.91978    
      3500   1593.8503     -36876.08       2346.9767     -34529.103      71.288715    
Loop time of 0.0280947 on 1 procs for 20 steps with 495 atoms

timestep 0.251770
run 20 post no pre no
   Step          Temp          PotEng         KinEng         TotEng         Press     
      3500   1593.8503     -36876.08       2346.9767     -34529.103      71.288715    
      3520   1651.2743     -36956.454      2431.5348     -34524.92       151.00024    
Loop time of 0.0267888 on 1 procs for 20 steps with 495 atoms

timestep 0.256840
run 20 post no pre no
   Step          Temp          PotEng         KinEng         TotEng         Press     
      3520   1651.2743     -36956.454      2431.5348     -34524.92       151.00024    
      3540   1618.8479     -36922.674      2383.7861     -34538.888      32.816188    
Loop time of 0.0280939 on 1 procs for 20 steps with 495 atoms

timestep 0.265620
run 20 post no pre no
   Step          Temp          PotEng         KinEng         TotEng         Press     
      3540   1618.8479     -36922.674      2383.7861     -34538.888      32.816188    
      3560   1584.4032     -36896.72       2333.0656     -34563.654      141.94126    
Loop time of 0.0275663 on 1 procs for 20 steps with 495 atoms

timestep 0.274067
run 20 post no pre no
   Step          Temp          PotEng         KinEng         TotEng         Press     
      3560   1584.4032     -36896.72       2333.0656     -34563.654      141.94126    
      3580   1541.2538     -36879.939      2269.5273     -34610.412      27.815303    
Loop time of 0.0269653 on 1 procs for 20 steps with 495 atoms

timestep 0.275865
run 20 post no pre no
   Step          Temp          PotEng         KinEng         TotEng         Press     
      3580   1541.2538     -36879.939      2269.5273     -34610.412      27.815303    
      3600   1519.7213     -36838.537      2237.8202     -34600.717      55.399037    
Loop time of 0.0260745 on 1 procs for 20 steps with 495 atoms

timestep 0.268519
run 20 post no pre no
   Step          Temp          PotEng         KinEng         TotEng         Press     
      3600   1519.7213     -36838.537      2237.8202     -34600.717      55.399037    
      3620   1552.6874     -36937.923      2286.3635     -34651.56       127.63735    
Loop time of 0.0277959 on 1 procs for 20 steps with 495 atoms

timestep 0.262081
run 20 post no pre no
   Step          Temp          PotEng         KinEng         TotEng         Press     
      3620   1552.6874     -36937.923      2286.3635     -34651.56       127.63735    
      3640   1501.6305     -36919.715      2211.1812     -34708.534      157.64169    
Loop time of 0.0265451 on 1 procs for 20 steps with 495 atoms

timestep 0.266594
run 20 post no pre no
   Step          Temp          PotEng         KinEng         TotEng         Press     
      3640   1501.6305     -36919.715      2211.1812     -34708.534      157.64169    
      3660   1477.9555     -36884.996      2176.3193     -34708.676     -30.429534    
Loop time of 0.0268292 on 1 procs for 20 steps with 495 atoms

timestep 0.270249
run 20 post no pre no
   Step          Temp          PotEng         KinEng         TotEng         Press     
      3660   1477.9555     -36884.996      2176.3193     -34708.676     -30.429534    
      3680   1461.0187     -36913.409      2151.3795     -34762.029      89.83386     
Loop time of 0.026953 on 1 procs for 20 steps with 495 atoms

timestep 0.270866
run 20 post no pre no
   Step          Temp          PotEng         KinEng         TotEng         Press     
      3680   1461.0187     -36913.409      2151.3795     -34762.029      89.83386     
      3700   1475.1845     -36920.678      2172.2389     -34748.439      131.96724    
Loop time of 0.0268594 on 1 procs for 20 steps with 495 atoms

timestep 0.271451
run 20 post no pre no
   Step          Temp          PotEng         KinEng         TotEng         Press     
      3700   1475.1845     -36920.678      2172.2389     -34748.439      131.96724    
      3720   1442.1133     -36941.602      2123.5409     -34818.062      143.6953     
Loop time of 0.0260394 on 1 procs for 20 steps with 495 atoms

timestep 0.259201
run 20 post no pre no
   Step          Temp          PotEng         KinEng         TotEng         Press     
      3720   1442.1133     -36941.602      2123.5409     -34818.062      143.6953     
      3740   1441.4673     -36930.533      2122.5897     -34807.943      24.012664    
Loop time of 0.0278838 on 1 procs for 20 steps with 495 atoms

timestep 0.258520
run 20 post no pre no
   Step          Temp          PotEng         KinEng         TotEng         Press     
      3740   1441.4673     -36930.533      2122.5897     -34807.943      24.012664    
      3760   1443.6854     -36900.979      2125.8559     -34775.124      116.98805    
Loop time of 0.0275566 on 1 procs for 20 steps with 495 atoms

timestep 0.270446
run 20 post no pre no
   Step          Temp          PotEng         KinEng         TotEng         Press     
      3760   1443.6854     -36900.979      2125.8559     -34775.124      116.98805    
      3780   1478.7078     -36929.311      2177.427      -34751.884      85.772271    
Loop time of 0.0266543 on 1 procs for 20 steps with 495 atoms

timestep 0.264428
run 20 post no pre no
   Step          Temp          PotEng         KinEng         TotEng         Press     
      3780   1478.7078     -36929.311      2177.427      -34751.884      85.772271    
      3800   1467.9929     -36902.377      2161.6491     -34740.728      39.70965     
Loop time of 0.0269174 on 1 procs for 20 steps with 495 atoms

timestep 0.268712
run 20 post no pre no
   Step          Temp          PotEng         KinEng         TotEng         Press     
      3800   1467.9929     -36902.377      2161.6491     -34740.728      39.70965     
      3820   1439.4898     -36900.693      2119.6778     -34781.016      88.27365     
Loop time of 0.0274036 on 1 procs for 20 steps with 495 atoms

timestep 0.272579
run 20 post no pre no
   Step          Temp          PotEng         KinEng         TotEng         Press     
      3820   1439.4898     -36900.693      2119.6778     -34781.016      88.27365     
      3840   1480.3314     -36856.163      2179.8178     -34676.345      23.789418    
Loop time of 0.0265107 on 1 procs for 20 steps with 495 atoms

timestep 0.268648
run 20 post no pre no
   Step          Temp          PotEng         KinEng         TotEng         Press     
      3840   1480.3314     -36856.163      2179.8178     -34676.345      23.789418    
      3860   1488.7282     -36865.052      2192.1823     -34672.87       115.51263    
Loop time of 0.0274796 on 1 procs for 20 steps with 495 atoms

timestep 0.266597
run 20 post no pre no
   Step          Temp          PotEng         KinEng         TotEng         Press     
      3860   1488.7282     -36865.052      2192.1823     -34672.87       115.51263    
      3880   1471.6028     -36876.216      2166.9648     -34709.251      89.46916     
Loop time of 0.0274399 on 1 procs for 20 steps with 495 atoms

timestep 0.274730
run 20 post no pre no
   Step          Temp          PotEng         KinEng         TotEng         Press     
      3880   1471.6028     -36876.216      2166.9648     -34709.251      89.46916     
      3900   1451.8046     -36879.888      2137.8116     -34742.077      75.704591    
Loop time of 0.0264285 on 1 procs for 20 steps with 495 atoms

timestep 0.271066
run 20 post no pre no
   Step          Temp          PotEng         KinEng         TotEng         Press     
      3900   1451.8046     -36879.888      2137.8116     -34742.077      75.704591    
      3920   1463.6733     -36945.666      2155.2884     -34790.377      45.367118    
Loop time of 0.0280326 on 1 procs for 20 steps with 495 atoms

timestep 0.263366
run 20 post no pre no
   Step          Temp          PotEng         KinEng         TotEng         Press     
      3920   1463.6733     -36945.666      2155.2884     -34790.377      45.367118    
      3940   1369.9089     -36852.83       2017.2185     -34835.611      133.4516     
Loop time of 0.028939 on 1 procs for 20 steps with 495 atoms

timestep 0.267331
run 20 post no pre no
   Step          Temp          PotEng         KinEng         TotEng         Press     
      3940   1369.9089     -36852.83       2017.2185     -34835.611      133.4516     
      3960   1420.2446     -36938.306      2091.3388     -34846.968      105.37827    
Loop time of 0.0256155 on 1 procs for 20 steps with 495 atoms

timestep 0.266901
run 20 post no pre no
   Step          Temp          PotEng         KinEng         TotEng         Press     
      3960   1420.2446     -36938.306      2091.3388     -34846.968      105.37827    
      3980   1399.8848     -36896.151      2061.3586     -34834.793     -34.998893    
Loop time of 0.0268877 on 1 procs for 20 steps with 495 atoms

timestep 0.263290
run 20 post no pre no
   Step          Temp          PotEng         KinEng         TotEng         Press     
      3980   1399.8848     -36896.151      2061.3586     -34834.793     -34.998893    
      4000   1415.7354     -36838.414      2084.6989     -34753.715      79.842352    
Loop time of 0.0266398 on 1 procs for 20 steps with 495 atoms

unfix q
fix q all qeq/reaxff 1 0.0 10.0 0.0001 reaxff maxiter 200
run 0 post no pre no
   Step          Temp          PotEng         KinEng         TotEng         Press     
      4000   1415.7354     -36838.414      2084.6989     -34753.715      79.842352    
Loop time of 9.24e-07 on 1 procs for 0 steps with 495 atoms

unfix q
fix q all qeq/reaxff 1 0.0 10.0 1e-06 reaxff maxiter 200
run 0 post no pre no
   Step          Temp          PotEng         KinEng         TotEng         Press     
      4000   1415.7354     -36838.414      2084.6989     -34753.715      79.842352    
Loop time of 7.27e-07 on 1 procs for 0 steps with 495 atoms

unfix q
fix q all qeq/reaxff 1 0.0 10.0 0.0001 reaxff maxiter 200
run 0 post no pre no
   Step          Temp          PotEng         KinEng         TotEng         Press     
      4000   1415.7354     -36838.414      2084.6989     -34753.715      79.842352    
Loop time of 7.55e-07 on 1 procs for 0 steps with 495 atoms

unfix q
fix q all qeq/reaxff 1 0.0 10.0 0.0005 reaxff maxiter 200
timestep 0.263072
run 20 post no pre no
   Step          Temp          PotEng         KinEng         TotEng         Press     
[...]

timestep 0.268772
run 20 post no pre no
   Step          Temp          PotEng         KinEng         TotEng         Press     
     17660   1533.0211     -36775.727      2257.4045     -34518.322     -93.136658    
     17680   1574.5881     -36780.092      2318.6127     -34461.479      98.025137    
Loop time of 0.0280757 on 1 procs for 20 steps with 495 atoms

timestep 0.259236
run 20 post no pre no
   Step          Temp          PotEng         KinEng         TotEng         Press     
     17680   1574.5881     -36780.092      2318.6127     -34461.479      98.025137    
     17700   1526.7426     -36702.423      2248.1593     -34454.264      92.826519    
Loop time of 0.0267961 on 1 procs for 20 steps with 495 atoms

timestep 0.256276
run 20 post no pre no
   Step          Temp          PotEng         KinEng         TotEng         Press     
     17700   1526.7426     -36702.423      2248.1593     -34454.264      92.826519    
     17720   1635.5492     -36816.787      2408.3792     -34408.408      208.8654     
Loop time of 0.0277195 on 1 procs for 20 steps with 495 atoms

timestep 0.256406
run 20 post no pre no
   Step          Temp          PotEng         KinEng         TotEng         Press     
     17720   1635.5492     -36816.787      2408.3792     -34408.408      208.8654     
     17740   1580.7324     -36748.847      2327.6603     -34421.187      28.046088    
Loop time of 0.0280355 on 1 procs for 20 steps with 495 atoms

timestep 0.254945
run 20 post no pre no
   Step          Temp          PotEng         KinEng         TotEng         Press     
     17740   1580.7324     -36748.847      2327.6603     -34421.187      28.046088    
     17760   1566.8172     -36769.263      2307.1699     -34462.093      57.553619    
Loop time of 0.0278464 on 1 procs for 20 steps with 495 atoms

timestep 0.261369
run 20 post no pre no
   Step          Temp          PotEng         KinEng         TotEng         Press     
     17760   1566.8172     -36769.263      2307.1699     -34462.093      57.553619    
     17780   1587.7899     -36803.771      2338.0527     -34465.718      155.20742    
Loop time of 0.026441 on 1 procs for 20 steps with 495 atoms

timestep 0.253787
run 20 post no pre no
   Step          Temp          PotEng         KinEng         TotEng         Press     
     17780   1587.7899     -36803.771      2338.0527     -34465.718      155.20742    
     17800   1578.474      -36827.652      2324.3347     -34503.318      148.01446    
Loop time of 0.0281028 on 1 procs for 20 steps with 495 atoms

timestep 0.262486
run 20 post no pre no
   Step          Temp          PotEng         KinEng         TotEng         Press     
     17800   1578.474      -36827.652      2324.3347     -34503.318      148.01446    
     17820   1572.4688     -36820.943      2315.492      -34505.451      17.676828    
Loop time of 0.0294763 on 1 procs for 20 steps with 495 atoms

timestep 0.267894
run 20 post no pre no
   Step          Temp          PotEng         KinEng         TotEng         Press     
     17820   1572.4688     -36820.943      2315.492      -34505.451      17.676828    
     17840   1589.4734     -36863.835      2340.5316     -34523.304     -40.390363    
Loop time of 0.0268745 on 1 procs for 20 steps with 495 atoms

timestep 0.270006
run 20 post no pre no
   Step          Temp          PotEng         KinEng         TotEng         Press     
     17840   1589.4734     -36863.835      2340.5316     -34523.304     -40.390363    
     17860   1563.2277     -36828.784      2301.8843     -34526.9        247.99739    
Loop time of 0.0275068 on 1 procs for 20 steps with 495 atoms

timestep 0.246743
run 20 post no pre no
   Step          Temp          PotEng         KinEng         TotEng         Press     
     17860   1563.2277     -36828.784      2301.8843     -34526.9        247.99739    
     17880   1576.7424     -36869.352      2321.7849     -34547.567      124.92034    
Loop time of 0.0285509 on 1 procs for 20 steps with 495 atoms

timestep 0.259881
run 20 post no pre no
   Step          Temp          PotEng         KinEng         TotEng         Press     
     17880   1576.7424     -36869.352      2321.7849     -34547.567      124.92034    
     17900   1609.6069     -36873.315      2370.1786     -34503.136      24.736451    
Loop time of 0.0277501 on 1 procs for 20 steps with 495 atoms

timestep 0.258585
run 20 post no pre no
   Step          Temp          PotEng         KinEng         TotEng         Press     
     17900   1609.6069     -36873.315      2370.1786     -34503.136      24.736451    
     17920   1599.9666     -36879.005      2355.9831     -34523.022      4.9883421    
Loop time of 0.0278243 on 1 procs for 20 steps with 495 atoms

timestep 0.265055
run 20 post no pre no
   Step          Temp          PotEng         KinEng         TotEng         Press     
     17920   1599.9666     -36879.005      2355.9831     -34523.022      4.9883421    
     17940   1619.8117     -36870.944      2385.2054     -34485.739      211.66312    
Loop time of 0.0279228 on 1 procs for 20 steps with 495 atoms

timestep 0.266964
run 20 post no pre no
   Step          Temp          PotEng         KinEng         TotEng         Press     
     17940   1619.8117     -36870.944      2385.2054     -34485.739      211.66312    
     17960   1632.8278     -36865.726      2404.3719     -34461.354      141.86484    
Loop time of 0.0273691 on 1 procs for 20 steps with 495 atoms

timestep 0.264540
run 20 post no pre no
   Step          Temp          PotEng         KinEng         TotEng         Press     
     17960   1632.8278     -36865.726      2404.3719     -34461.354      141.86484    
     17980   1670.3073     -36913.046      2459.5611     -34453.485      0.86483291   
Loop time of 0.027703 on 1 procs for 20 steps with 495 atoms

timestep 0.271656
run 20 post no pre no
   Step          Temp          PotEng         KinEng         TotEng         Press     
     17980   1670.3073     -36913.046      2459.5611     -34453.485      0.86483291   
     18000   1662.7223     -36900.871      2448.3921     -34452.479      143.67849    
Loop time of 0.027625 on 1 procs for 20 steps with 495 atoms

unfix q
fix q all qeq/reaxff 1 0.0 10.0 0.0001 reaxff maxiter 200
run 0 post no pre no
   Step          Temp          PotEng         KinEng         TotEng         Press     
     18000   1662.7223     -36900.871      2448.3921     -34452.479      143.67849    
Loop time of 1.009e-06 on 1 procs for 0 steps with 495 atoms

unfix q
fix q all qeq/reaxff 1 0.0 10.0 1e-06 reaxff maxiter 200
run 0 post no pre no
   Step          Temp          PotEng         KinEng         TotEng         Press     
     18000   1662.7223     -36900.871      2448.3921     -34452.479      143.67849    
Loop time of 9.89e-07 on 1 procs for 0 steps with 495 atoms

unfix q
fix q all qeq/reaxff 1 0.0 10.0 0.0001 reaxff maxiter 200
run 0 post no pre no
   Step          Temp          PotEng         KinEng         TotEng         Press     
     18000   1662.7223     -36900.871      2448.3921     -34452.479      143.67849    
Loop time of 7.82e-07 on 1 procs for 0 steps with 495 atoms

unfix q
fix q all qeq/reaxff 1 0.0 10.0 0.0005 reaxff maxiter 200
timestep 0.269131
run 20 post no pre no
   Step          Temp          PotEng         KinEng         TotEng         Press     
     18000   1662.7223     -36900.871      2448.3921     -34452.479      143.67849    
     18020   1662.2357     -36938.318      2447.6756     -34490.643      195.21768    
Loop time of 0.0268452 on 1 procs for 20 steps with 495 atoms

timestep 0.275132
run 20 post no pre no
   Step          Temp          PotEng         KinEng         TotEng         Press     
     18020   1662.2357     -36938.318      2447.6756     -34490.643      195.21768    
     18040   1571.4648     -36852.086      2314.0135     -34538.072      74.871051    
Loop time of 0.0285395 on 1 procs for 20 steps with 495 atoms

timestep 0.270104
run 20 post no pre no
   Step          Temp          PotEng         KinEng         TotEng         Press     
     18040   1571.4648     -36852.086      2314.0135     -34538.072      74.871051    
     18060   1634.0824     -36949.781      2406.2193     -34543.562     -14.162242    
Loop time of 0.0267677 on 1 procs for 20 steps with 495 atoms

timestep 0.276364
run 20 post no pre no
   Step          Temp          PotEng         KinEng         TotEng         Press     
     18060   1634.0824     -36949.781      2406.2193     -34543.562     -14.162242    
     18080   1575.9415     -36864.487      2320.6056     -34543.882      241.7442     
Loop time of 0.0270016 on 1 procs for 20 steps with 495 atoms

timestep 0.252760
run 20 post no pre no
   Step          Temp          PotEng         KinEng         TotEng         Press     
     18080   1575.9415     -36864.487      2320.6056     -34543.882      241.7442     
     18100   1540.9728     -36895.358      2269.1135     -34626.244      151.90434    
Loop time of 0.0276106 on 1 procs for 20 steps with 495 atoms

timestep 0.265848
run 20 post no pre no
   Step          Temp          PotEng         KinEng         TotEng         Press     
     18100   1540.9728     -36895.358      2269.1135     -34626.244      151.90434    
     18120   1505.0803     -36921.54       2216.2611     -34705.279      53.068764    
Loop time of 0.0277455 on 1 procs for 20 steps with 495 atoms

timestep 0.270236
run 20 post no pre no
   Step          Temp          PotEng         KinEng         TotEng         Press     
     18120   1505.0803     -36921.54       2216.2611     -34705.279      53.068764    
     18140   1517.3904     -36930.62       2234.388      -34696.232      228.37605    
Loop time of 0.0271289 on 1 procs for 20 steps with 495 atoms

timestep 0.248064
run 20 post no pre no
   Step          Temp          PotEng         KinEng         TotEng         Press     
     18140   1517.3904     -36930.62       2234.388      -34696.232      228.37605    
     18160   1527.8222     -36947.218      2249.749      -34697.469      117.3563     
Loop time of 0.0271287 on 1 procs for 20 steps with 495 atoms

timestep 0.267267
run 20 post no pre no
   Step          Temp          PotEng         KinEng         TotEng         Press     
     18160   1527.8222     -36947.218      2249.749      -34697.469      117.3563     
     18180   1525.8568     -36972.55       2246.8549     -34725.695      119.25364    
Loop time of 0.0281953 on 1 procs for 20 steps with 495 atoms

timestep 0.270357
run 20 post no pre no
   Step          Temp          PotEng         KinEng         TotEng         Press     
     18180   1525.8568     -36972.55       2246.8549     -34725.695      119.25364    
     18200   1495.8863     -36925.052      2202.7227     -34722.329      92.917126    
Loop time of 0.0266636 on 1 procs for 20 steps with 495 atoms

timestep 0.264766
run 20 post no pre no
   Step          Temp          PotEng         KinEng         TotEng         Press     
     18200   1495.8863     -36925.052      2202.7227     -34722.329      92.917126    
     18220   1544.0101     -36954.233      2273.586      -34680.647      100.83758    
Loop time of 0.028168 on 1 procs for 20 steps with 495 atoms

timestep 0.274804
run 20 post no pre no
   Step          Temp          PotEng         KinEng         TotEng         Press     
     18220   1544.0101     -36954.233      2273.586      -34680.647      100.83758    
     18240   1512.4912     -36961.859      2227.1738     -34734.685      83.935317    
Loop time of 0.0270255 on 1 procs for 20 steps with 495 atoms

timestep 0.281774
run 20 post no pre no
   Step          Temp          PotEng         KinEng         TotEng         Press     
     18240   1512.4912     -36961.859      2227.1738     -34734.685      83.935317    
     18260   1513.2827     -36995.322      2228.3393     -34766.983      204.53893    
Loop time of 0.0270443 on 1 procs for 20 steps with 495 atoms

timestep 0.265085
run 20 post no pre no
   Step          Temp          PotEng         KinEng         TotEng         Press     
     18260   1513.2827     -36995.322      2228.3393     -34766.983      204.53893    
     18280   1474.6414     -36955.667      2171.4393     -34784.228      13.131578    
Loop time of 0.0277018 on 1 procs for 20 steps with 495 atoms

timestep 0.285197
run 20 post no pre no
   Step          Temp          PotEng         KinEng         TotEng         Press     
     18280   1474.6414     -36955.667      2171.4393     -34784.228      13.131578    
     18300   1519.4922     -37018.944      2237.4829     -34781.462      92.134141    
Loop time of 0.0271856 on 1 procs for 20 steps with 495 atoms

timestep 0.283791
run 20 post no pre no
   Step          Temp          PotEng         KinEng         TotEng         Press     
     18300   1519.4922     -37018.944      2237.4829     -34781.462      92.134141    
     18320   1487.7739     -36965.884      2190.7771     -34775.107      155.65538    
Loop time of 0.027367 on 1 procs for 20 steps with 495 atoms

timestep 0.281440
run 20 post no pre no
   Step          Temp          PotEng         KinEng         TotEng         Press     
     18320   1487.7739     -36965.884      2190.7771     -34775.107      155.65538    
     18340   1499.4624     -36940.912      2207.9886     -34732.923      138.38731    
Loop time of 0.0263401 on 1 procs for 20 steps with 495 atoms

timestep 0.276865
run 20 post no pre no
   Step          Temp          PotEng         KinEng         TotEng         Press     
     18340   1499.4624     -36940.912      2207.9886     -34732.923      138.38731    
     18360   1543.2741     -36998.171      2272.5023     -34725.669     -16.569262    
Loop time of 0.0276872 on 1 procs for 20 steps with 495 atoms

timestep 0.289544
run 20 post no pre no
   Step          Temp          PotEng         KinEng         TotEng         Press     
     18360   1543.2741     -36998.171      2272.5023     -34725.669     -16.569262    
     18380   1539.2148     -36945.019      2266.5248     -34678.494      201.81443    
Loop time of 0.0273748 on 1 procs for 20 steps with 495 atoms

timestep 0.267970
run 20 post no pre no
   Step          Temp          PotEng         KinEng         TotEng         Press     
     18380   1539.2148     -36945.019      2266.5248     -34678.494      201.81443    
     18400   1551.5357     -36978.709      2284.6677     -34694.041      220.67464    
Loop time of 0.0263916 on 1 procs for 20 steps with 495 atoms

timestep 0.268965
run 20 post no pre no
   Step          Temp          PotEng         KinEng         TotEng         Press     
     18400   1551.5357     -36978.709      2284.6677     -34694.041      220.67464    
     18420   1512.3033     -36947.88       2226.8971     -34720.983      50.459979    
Loop time of 0.0281988 on 1 procs for 20 steps with 495 atoms

timestep 0.280089
run 20 post no pre no
   Step          Temp          PotEng         KinEng         TotEng         Press     
     18420   1512.3033     -36947.88       2226.8971     -34720.983      50.459979    
     18440   1521.9955     -36983.073      2241.169      -34741.904      93.521546    
Loop time of 0.0274385 on 1 procs for 20 steps with 495 atoms

timestep 0.280563
run 20 post no pre no
   Step          Temp          PotEng         KinEng         TotEng         Press     
     18440   1521.9955     -36983.073      2241.169      -34741.904      93.521546    
     18460   1500.5502     -36959.221      2209.5904     -34749.63       80.511173    
Loop time of 0.028028 on 1 procs for 20 steps with 495 atoms

timestep 0.278916
run 20 post no pre no
   Step          Temp          PotEng         KinEng         TotEng         Press     
     18460   1500.5502     -36959.221      2209.5904     -34749.63       80.511173    
     18480   1509.5863     -36956.942      2222.8962     -34734.045      147.3727     
Loop time of 0.0270944 on 1 procs for 20 steps with 495 atoms

timestep 0.281007
run 20 post no pre no
   Step          Temp          PotEng         KinEng         TotEng         Press     
     18480   1509.5863     -36956.942      2222.8962     -34734.045      147.3727     
     18500   1472.1331     -36947.059      2167.7456     -34779.313      11.43043     
Loop time of 0.0278507 on 1 procs for 20 steps with 495 atoms

timestep 0.284957
run 20 post no pre no
   Step          Temp          PotEng         KinEng         TotEng         Press     
     18500   1472.1331     -36947.059      2167.7456     -34779.313      11.43043     
     18520   1464.2684     -36943.673      2156.1648     -34787.508      178.55228    
Loop time of 0.0266261 on 1 procs for 20 steps with 495 atoms

timestep 0.276457
run 20 post no pre no
   Step          Temp          PotEng         KinEng         TotEng         Press     
     18520   1464.2684     -36943.673      2156.1648     -34787.508      178.55228    
     18540   1434.9907     -36919.993      2113.0528     -34806.94       45.987772    
Loop time of 0.027256 on 1 procs for 20 steps with 495 atoms

timestep 0.269443
run 20 post no pre no
   Step          Temp          PotEng         KinEng         TotEng         Press     
     18540   1434.9907     -36919.993      2113.0528     -34806.94       45.987772    
     18560   1436.488      -36943.859      2115.2575     -34828.602      192.17624    
Loop time of 0.0269789 on 1 procs for 20 steps with 495 atoms

timestep 0.273628
run 20 post no pre no
   Step          Temp          PotEng         KinEng         TotEng         Press     
     18560   1436.488      -36943.859      2115.2575     -34828.602      192.17624    
     18580   1401.361      -36867.072      2063.5323     -34803.54      -46.053626    
Loop time of 0.0271264 on 1 procs for 20 steps with 495 atoms

timestep 0.271778
run 20 post no pre no
   Step          Temp          PotEng         KinEng         TotEng         Press     
     18580   1401.361      -36867.072      2063.5323     -34803.54      -46.053626    
     18600   1441.8844     -36920.301      2123.2039     -34797.098      228.53617    
Loop time of 0.0264224 on 1 procs for 20 steps with 495 atoms

timestep 0.265339
run 20 post no pre no
   Step          Temp          PotEng         KinEng         TotEng         Press     
     18600   1441.8844     -36920.301      2123.2039     -34797.098      228.53617    
     18620   1408.068      -36849.42       2073.4085     -34776.012      39.374083    
Loop time of 0.0276169 on 1 procs for 20 steps with 495 atoms

timestep 0.258799
run 20 post no pre no
   Step          Temp          PotEng         KinEng         TotEng         Press     
     18620   1408.068      -36849.42       2073.4085     -34776.012      39.374083    
     18640   1431.9446     -36899.347      2108.5673     -34790.779      151.85687    
Loop time of 0.0289153 on 1 procs for 20 steps with 495 atoms

timestep 0.275393
run 20 post no pre no
   Step          Temp          PotEng         KinEng         TotEng         Press     
     18640   1431.9446     -36899.347      2108.5673     -34790.779      151.85687    
     18660   1448.6915     -36889.903      2133.2275     -34756.675     -12.765675    
Loop time of 0.0265431 on 1 procs for 20 steps with 495 atoms

timestep 0.273538
run 20 post no pre no
   Step          Temp          PotEng         KinEng         TotEng         Press     
     18660   1448.6915     -36889.903      2133.2275     -34756.675     -12.765675    
     18680   1439.6357     -36919.319      2119.8926     -34799.427      244.61091    
Loop time of 0.0275233 on 1 procs for 20 steps with 495 atoms

timestep 0.278234
run 18 post no pre no
   Step          Temp          PotEng         KinEng         TotEng         Press     
     18680   1439.6357     -36919.319      2119.8926     -34799.427      244.61091    
     18698   1532.754      -36965.811      2257.0111     -34708.799     -7.5622304    
Loop time of 0.0240947 on 1 procs for 18 steps with 495 atoms

Total wall time: 0:00:29
