LAMMPS (29 Aug 2024)
OMP_NUM_THREADS environment is not set. Defaulting to 1 thread. (src/comm.cpp:98)
  using 1 OpenMP thread(s) per MPI task
read_restart restarts/start.rst
Reading restart file ...
  restart file = 29 Aug 2024, LAMMPS = 29 Aug 2024
  restoring atom style charge from restart
  orthogonal box = (0 0 0) to (60 60 60)
  1 by 1 by 1 MPI processor grid
  pair style reaxff stores no restart info
  1080 atoms
  read_restart CPU = 0.001 seconds
pair_style      reaxff NULL
pair_coeff * * ./ffield.reax.cho C H O
Reading potential file ./ffield.reax.cho with DATE: 2010-02-19
unfix q
ERROR: Could not find fix ID q to delete (src/modify.cpp:1063)
Last command: unfix q
fix q all qeq/reaxff 1 0.0 10.0 1.0e-6 reaxff maxiter 200
unfix int
ERROR: Could not find fix ID int to delete (src/modify.cpp:1063)
Last command: unfix int
unfix lang
ERROR: Could not find fix ID lang to delete (src/modify.cpp:1063)
Last command: unfix lang
fix int all nve
fix lang all langevin 1500.0 1500.0 100.0 90421
neighbor 2.0 bin
neigh_modify every 1 delay 0 check yes
reset_timestep 0
thermo 100000000
thermo_style custom step temp pe ke etotal press
dump detl all custom 100000 dumps/etlqeq.*.gz id type q x y z
dump_modify detl sort id
unfix q
fix q all qeq/reaxff 1 0.0 10.0 1e-06 reaxff maxiter 200
run 0 post no pre no

CITE-CITE-CITE-CITE-CITE-CITE-CITE-CITE-CITE-CITE-CITE-CITE-CITE

Your simulation uses code contributions which should be cited:

- pair reaxff command: doi:10.1016/j.parco.2011.08.005

@Article{Aktulga12,
 author = {H. M. Aktulga and J. C. Fogarty and S. A. Pandit and A. Y. Grama},
 title = {Parallel Reactive Molecular Dynamics: {N}umerical Methods and Algorithmic Techniques},
 journal = {Parallel Computing},
 year =    2012,
 volume =  38,
 number =  {4--5},
 pages =   {245--259}
}

- fix qeq/reaxff command: doi:10.1016/j.parco.2011.08.005

@Article{Aktulga12,
 author = {H. M. Aktulga and J. C. Fogarty and S. A. Pandit and A. Y. Grama},
 title = {Parallel Reactive Molecular Dynamics: {N}umerical Methods and Algorithmic Techniques},
 journal = {Parallel Computing},
 year =    2012,
 volume =  38,
 pages =   {245--259}
}

CITE-CITE-CITE-CITE-CITE-CITE-CITE-CITE-CITE-CITE-CITE-CITE-CITE

Neighbor list info ...
  update: every = 1 steps, delay = 0 steps, check = yes
  max neighbors/atom: 2000, page size: 100000
  master list distance cutoff = 12
  ghost atom cutoff = 12
  binsize = 6, bins = 10 10 10
  2 neighbor lists, perpetual/occasional/extra = 2 0 0
  (1) pair reaxff, perpetual
      attributes: half, newton off, ghost
      pair build: half/bin/ghost/newtoff
      stencil: full/ghost/bin/3d
      bin: standard
  (2) fix qeq/reaxff, perpetual, copy from (1)
      attributes: half, newton off
      pair build: copy
      stencil: none
      bin: none
Per MPI rank memory allocation (min/avg/max) = 35.87 | 35.87 | 35.87 Mbytes
   Step          Temp          PotEng         KinEng         TotEng         Press     
         0   1547.0252     -80775.964      4975.688      -75800.276      377.20251    
Loop time of 1.229e-06 on 1 procs for 0 steps with 1080 atoms

unfix q
fix q all qeq/reaxff 1 0.0 10.0 0.0001 reaxff maxiter 200
run 0 post no pre no
   Step          Temp          PotEng         KinEng         TotEng         Press     
         0   1547.0252     -80775.964      4975.688      -75800.276      377.20251    
Loop time of 1.105e-06 on 1 procs for 0 steps with 1080 atoms

unfix q
fix q all qeq/reaxff 1 0.0 10.0 1e-06 reaxff maxiter 200
run 0 post no pre no
   Step          Temp          PotEng         KinEng         TotEng         Press     
         0   1547.0252     -80775.964      4975.688      -75800.276      377.20251    
Loop time of 1.016e-06 on 1 procs for 0 steps with 1080 atoms

unfix q
fix q all qeq/reaxff 1 0.0 10.0 0.0001 reaxff maxiter 200
run 0 post no pre no
   Step          Temp          PotEng         KinEng         TotEng         Press     
         0   1547.0252     -80775.964      4975.688      -75800.276      377.20251    
Loop time of 9.46e-07 on 1 procs for 0 steps with 1080 atoms

unfix q
fix q all qeq/reaxff 1 0.0 10.0 0.0005 reaxff maxiter 200
unfix q
fix q all qeq/reaxff 1 0.0 10.0 0.0001 reaxff maxiter 200
run 0 post no pre no
   Step          Temp          PotEng         KinEng         TotEng         Press     
         0   1547.0252     -80775.964      4975.688      -75800.276      377.20251    
Loop time of 1.15e-06 on 1 procs for 0 steps with 1080 atoms

unfix q
fix q all qeq/reaxff 1 0.0 10.0 1e-06 reaxff maxiter 200
run 0 post no pre no
   Step          Temp          PotEng         KinEng         TotEng         Press     
         0   1547.0252     -80775.964      4975.688      -75800.276      377.20251    
Loop time of 9.7e-07 on 1 procs for 0 steps with 1080 atoms

unfix q
fix q all qeq/reaxff 1 0.0 10.0 0.0001 reaxff maxiter 200
run 0 post no pre no
   Step          Temp          PotEng         KinEng         TotEng         Press     
         0   1547.0252     -80775.964      4975.688      -75800.276      377.20251    
Loop time of 9.4e-07 on 1 procs for 0 steps with 1080 atoms

unfix q
fix q all qeq/reaxff 1 0.0 10.0 0.0005 reaxff maxiter 200
timestep 0.045000
run 20 post no pre no
   Step          Temp          PotEng         KinEng         TotEng         Press     
         0   1547.0252     -80775.964      4975.688      -75800.276      377.20251    
        20   1546.109      -80741.748      4972.7411     -75769.007      488.24779    
Loop time of 0.0985275 on 1 procs for 20 steps with 1080 atoms

timestep 0.067500
run 20 post no pre no
   Step          Temp          PotEng         KinEng         TotEng         Press     
        20   1546.109      -80741.748      4972.7411     -75769.007      488.24779    
        40   1521.2199     -80714.843      4892.6904     -75822.152      351.09943    
Loop time of 0.100319 on 1 procs for 20 steps with 1080 atoms

timestep 0.101250
run 20 post no pre no
   Step          Temp          PotEng         KinEng         TotEng         Press     
        40   1521.2199     -80714.843      4892.6904     -75822.152      351.09943    
        60   1532.6629     -80748.867      4929.4945     -75819.373      294.75395    
Loop time of 0.10498 on 1 procs for 20 steps with 1080 atoms

timestep 0.151875
run 20 post no pre no
   Step          Temp          PotEng         KinEng         TotEng         Press     
        60   1532.6629     -80748.867      4929.4945     -75819.373      294.75395    
        80   1518.8397     -80749.815      4885.0351     -75864.78       425.18199    
Loop time of 0.102281 on 1 procs for 20 steps with 1080 atoms

timestep 0.227813
run 20 post no pre no
   Step          Temp          PotEng         KinEng         TotEng         Press     
        80   1518.8397     -80749.815      4885.0351     -75864.78       425.18199    
       100   1539.9359     -80844.367      4952.8867     -75891.48       113.74567    
Loop time of 0.0904323 on 1 procs for 20 steps with 1080 atoms

timestep 0.256387
run 20 post no pre no
   Step          Temp          PotEng         KinEng         TotEng         Press     
       100   1539.9359     -80844.367      4952.8867     -75891.48       113.74567    
       120   1517.4953     -80839.687      4880.7112     -75958.976      455.4472     
Loop time of 0.0948474 on 1 procs for 20 steps with 1080 atoms

timestep 0.262202
run 20 post no pre no
   Step          Temp          PotEng         KinEng         TotEng         Press     
       120   1517.4953     -80839.687      4880.7112     -75958.976      455.4472     
       140   1547.556      -80878.056      4977.3953     -75900.661      527.7329     
Loop time of 0.0962555 on 1 procs for 20 steps with 1080 atoms

timestep 0.272863
run 20 post no pre no
   Step          Temp          PotEng         KinEng         TotEng         Press     
       140   1547.556      -80878.056      4977.3953     -75900.661      527.7329     
       160   1499.9825     -80797.191      4824.3847     -75972.806      489.18818    
Loop time of 0.101342 on 1 procs for 20 steps with 1080 atoms

timestep 0.262184
run 20 post no pre no
   Step          Temp          PotEng         KinEng         TotEng         Press     
       160   1499.9825     -80797.191      4824.3847     -75972.806      489.18818    
       180   1470.287      -80716.632      4728.8753     -75987.757      154.38643    
Loop time of 0.0949428 on 1 procs for 20 steps with 1080 atoms

timestep 0.264070
run 20 post no pre no
   Step          Temp          PotEng         KinEng         TotEng         Press     
       180   1470.287      -80716.632      4728.8753     -75987.757      154.38643    
       200   1507.6671     -80898.318      4849.1009     -76049.217      292.73384    
Loop time of 0.093819 on 1 procs for 20 steps with 1080 atoms

timestep 0.267270
run 20 post no pre no
   Step          Temp          PotEng         KinEng         TotEng         Press     
       200   1507.6671     -80898.318      4849.1009     -76049.217      292.73384    
       220   1481.9035     -80749.05       4766.2373     -75982.813      421.50693    
Loop time of 0.102832 on 1 procs for 20 steps with 1080 atoms

timestep 0.266681
run 20 post no pre no
   Step          Temp          PotEng         KinEng         TotEng         Press     
       220   1481.9035     -80749.05       4766.2373     -75982.813      421.50693    
       240   1514.7929     -80840.446      4872.0194     -75968.427      309.75299    
Loop time of 0.0935044 on 1 procs for 20 steps with 1080 atoms

timestep 0.261846
run 20 post no pre no
   Step          Temp          PotEng         KinEng         TotEng         Press     
       240   1514.7929     -80840.446      4872.0194     -75968.427      309.75299    
       260   1530.3586     -80891.639      4922.0833     -75969.556      127.30326    
Loop time of 0.0956389 on 1 procs for 20 steps with 1080 atoms

timestep 0.269269
run 20 post no pre no
   Step          Temp          PotEng         KinEng         TotEng         Press     
       260   1530.3586     -80891.639      4922.0833     -75969.556      127.30326    
       280   1496.1098     -80785.926      4811.9291     -75973.997      458.67232    
Loop time of 0.0940863 on 1 procs for 20 steps with 1080 atoms

timestep 0.275047
run 20 post no pre no
   Step          Temp          PotEng         KinEng         TotEng         Press     
       280   1496.1098     -80785.926      4811.9291     -75973.997      458.67232    
       300   1528.9928     -80840.548      4917.6904     -75922.858      407.95553    
Loop time of 0.0903952 on 1 procs for 20 steps with 1080 atoms

timestep 0.274555
run 20 post no pre no
   Step          Temp          PotEng         KinEng         TotEng         Press     
       300   1528.9928     -80840.548      4917.6904     -75922.858      407.95553    
       320   1488.8928     -80719.23       4788.7169     -75930.513     -3.9007689    
Loop time of 0.105507 on 1 procs for 20 steps with 1080 atoms

timestep 0.270854
run 20 post no pre no
   Step          Temp          PotEng         KinEng         TotEng         Press     
       320   1488.8928     -80719.23       4788.7169     -75930.513     -3.9007689    
       340   1525.1047     -80783.442      4905.1852     -75878.257      454.75275    
Loop time of 0.0979185 on 1 procs for 20 steps with 1080 atoms

timestep 0.274705
run 20 post no pre no
   Step          Temp          PotEng         KinEng         TotEng         Press     
       340   1525.1047     -80783.442      4905.1852     -75878.257      454.75275    
       360   1505.4927     -80693.967      4842.1071     -75851.86       399.1588     
Loop time of 0.101071 on 1 procs for 20 steps with 1080 atoms

timestep 0.268816
run 20 post no pre no
   Step          Temp          PotEng         KinEng         TotEng         Press     
       360   1505.4927     -80693.967      4842.1071     -75851.86       399.1588     
       380   1528.412      -80705.687      4915.8223     -75789.864      419.85533    
Loop time of 0.0972873 on 1 procs for 20 steps with 1080 atoms

timestep 0.260228
run 20 post no pre no
   Step          Temp          PotEng         KinEng         TotEng         Press     
       380   1528.412      -80705.687      4915.8223     -75789.864      419.85533    
       400   1534.4507     -80658.098      4935.2446     -75722.853     -129.26213    
Loop time of 0.0988051 on 1 procs for 20 steps with 1080 atoms

timestep 0.265167
run 20 post no pre no
   Step          Temp          PotEng         KinEng         TotEng         Press     
       400   1534.4507     -80658.098      4935.2446     -75722.853     -129.26213    
       420   1547.0735     -80787.574      4975.8434     -75811.73       521.24312    
Loop time of 0.0975927 on 1 procs for 20 steps with 1080 atoms

timestep 0.274396
run 20 post no pre no
   Step          Temp          PotEng         KinEng         TotEng         Press     
       420   1547.0735     -80787.574      4975.8434     -75811.73       521.24312    
       440   1499.3079     -80673.028      4822.215      -75850.813      432.64863    
Loop time of 0.0993161 on 1 procs for 20 steps with 1080 atoms

timestep 0.263966
run 20 post no pre no
   Step          Temp          PotEng         KinEng         TotEng         Press     
       440   1499.3079     -80673.028      4822.215      -75850.813      432.64863    
       460   1535.9946     -80812.739      4940.2102     -75872.529      296.05954    
Loop time of 0.0946995 on 1 procs for 20 steps with 1080 atoms

timestep 0.265979
run 20 post no pre no
   Step          Temp          PotEng         KinEng         TotEng         Press     
       460   1535.9946     -80812.739      4940.2102     -75872.529      296.05954    
       480   1491.1095     -80778.54       4795.8467     -75982.694      96.992972    
Loop time of 0.0927459 on 1 procs for 20 steps with 1080 atoms

timestep 0.267066
run 20 post no pre no
   Step          Temp          PotEng         KinEng         TotEng         Press     
       480   1491.1095     -80778.54       4795.8467     -75982.694      96.992972    
       500   1478.4255     -80718.986      4755.0511     -75963.935      595.58821    
Loop time of 0.0891812 on 1 procs for 20 steps with 1080 atoms

timestep 0.271299
run 20 post no pre no
   Step          Temp          PotEng         KinEng         TotEng         Press     
       500   1478.4255     -80718.986      4755.0511     -75963.935      595.58821    
       520   1482.4435     -80780.314      4767.9741     -76012.34       570.21525    
Loop time of 0.0934355 on 1 procs for 20 steps with 1080 atoms

timestep 0.262704
run 20 post no pre no
   Step          Temp          PotEng         KinEng         TotEng         Press     
       520   1482.4435     -80780.314      4767.9741     -76012.34       570.21525    
       540   1470.6276     -80786.986      4729.9709     -76057.015      235.54868    
Loop time of 0.0920614 on 1 procs for 20 steps with 1080 atoms

timestep 0.261123
run 20 post no pre no
   Step          Temp          PotEng         KinEng         TotEng         Press     
       540   1470.6276     -80786.986      4729.9709     -76057.015      235.54868    
       560   1462.7042     -80782.389      4704.4868     -76077.902      124.37261    
Loop time of 0.0931064 on 1 procs for 20 steps with 1080 atoms

timestep 0.263860
run 20 post no pre no
   Step          Temp          PotEng         KinEng         TotEng         Press     
       560   1462.7042     -80782.389      4704.4868     -76077.902      124.37261    
       580   1455.5886     -80776.387      4681.601      -76094.786      390.67118    
Loop time of 0.100888 on 1 procs for 20 steps with 1080 atoms

timestep 0.270414
run 20 post no pre no
   Step          Temp          PotEng         KinEng         TotEng         Press     
       580   1455.5886     -80776.387      4681.601      -76094.786      390.67118    
       600   1503.8512     -80914.883      4836.8277     -76078.055      496.7401     
Loop time of 0.0920792 on 1 procs for 20 steps with 1080 atoms

timestep 0.278334
run 20 post no pre no
   Step          Temp          PotEng         KinEng         TotEng         Press     
       600   1503.8512     -80914.883      4836.8277     -76078.055      496.7401     
       620   1467.1241     -80774.583      4718.7025     -76055.881      22.985572    
Loop time of 0.0921129 on 1 procs for 20 steps with 1080 atoms

timestep 0.271477
run 20 post no pre no
   Step          Temp          PotEng         KinEng         TotEng         Press     
       620   1467.1241     -80774.583      4718.7025     -76055.881      22.985572    
       640   1500.976      -80883.784      4827.5802     -76056.204      354.33573    
Loop time of 0.0978521 on 1 procs for 20 steps with 1080 atoms

timestep 0.270745
run 20 post no pre no
   Step          Temp          PotEng         KinEng         TotEng         Press     
       640   1500.976      -80883.784      4827.5802     -76056.204      354.33573    
       660   1477.8947     -80773.426      4753.344      -76020.082      487.86815    
Loop time of 0.102923 on 1 procs for 20 steps with 1080 atoms

timestep 0.274539
run 20 post no pre no
   Step          Temp          PotEng         KinEng         TotEng         Press     
       660   1477.8947     -80773.426      4753.344      -76020.082      487.86815    
       680   1510.8126     -80861.664      4859.2174     -76002.446      413.98312    
Loop time of 0.119508 on 1 procs for 20 steps with 1080 atoms

timestep 0.275060
run 20 post no pre no
   Step          Temp          PotEng         KinEng         TotEng         Press     
       680   1510.8126     -80861.664      4859.2174     -76002.446      413.98312    
       700   1480.5847     -80743.514      4761.9957     -75981.518     -146.39996    
Loop time of 0.0899232 on 1 procs for 20 steps with 1080 atoms

timestep 0.270733
run 20 post no pre no
   Step          Temp          PotEng         KinEng         TotEng         Press     
       700   1480.5847     -80743.514      4761.9957     -75981.518     -146.39996    
       720   1485.0946     -80710.509      4776.5009     -75934.008      454.59914    
Loop time of 0.0942555 on 1 procs for 20 steps with 1080 atoms

timestep 0.263901
run 20 post no pre no
   Step          Temp          PotEng         KinEng         TotEng         Press     
       720   1485.0946     -80710.509      4776.5009     -75934.008      454.59914    
       740   1524.7275     -80788.953      4903.972      -75884.981      523.15423    
Loop time of 0.0945307 on 1 procs for 20 steps with 1080 atoms

timestep 0.259954
run 20 post no pre no
   Step          Temp          PotEng         KinEng         TotEng         Press     
       740   1524.7275     -80788.953      4903.972      -75884.981      523.15423    
       760   1508.8076     -80800.569      4852.7688     -75947.8        408.6822     
Loop time of 0.101092 on 1 procs for 20 steps with 1080 atoms

timestep 0.261609
run 20 post no pre no
   Step          Temp          PotEng         KinEng         TotEng         Press     
       760   1508.8076     -80800.569      4852.7688     -75947.8        408.6822     
       780   1498.5643     -80695.324      4819.8236     -75875.5        6.4435564    
Loop time of 0.106055 on 1 procs for 20 steps with 1080 atoms

timestep 0.270476
run 20 post no pre no
   Step          Temp          PotEng         KinEng         TotEng         Press     
       780   1498.5643     -80695.324      4819.8236     -75875.5        6.4435564    
       800   1529.3332     -80823.838      4918.7853     -75905.053      284.60882    
Loop time of 0.0990346 on 1 procs for 20 steps with 1080 atoms

timestep 0.270461
run 20 post no pre no
   Step          Temp          PotEng         KinEng         TotEng         Press     
       800   1529.3332     -80823.838      4918.7853     -75905.053      284.60882    
       820   1468.8697     -80632.327      4724.3168     -75908.01       637.3151     
Loop time of 0.0975487 on 1 procs for 20 steps with 1080 atoms

timestep 0.257357
run 20 post no pre no
   Step          Temp          PotEng         KinEng         TotEng         Press     
       820   1468.8697     -80632.327      4724.3168     -75908.01       637.3151     
       840   1497.2199     -80673.786      4815.4994     -75858.287      159.60995    
Loop time of 0.107615 on 1 procs for 20 steps with 1080 atoms

timestep 0.262234
run 20 post no pre no
   Step          Temp          PotEng         KinEng         TotEng         Press     
       840   1497.2199     -80673.786      4815.4994     -75858.287      159.60995    
       860   1550.2559     -80771.819      4986.079      -75785.74       272.80433    
Loop time of 0.0991565 on 1 procs for 20 steps with 1080 atoms

timestep 0.266475
run 20 post no pre no
   Step          Temp          PotEng         KinEng         TotEng         Press     
       860   1550.2559     -80771.819      4986.079      -75785.74       272.80433    
       880   1499.1759     -80514.936      4821.7907     -75693.146      549.03474    
Loop time of 0.0942575 on 1 procs for 20 steps with 1080 atoms

timestep 0.250911
run 20 post no pre no
   Step          Temp          PotEng         KinEng         TotEng         Press     
       880   1499.1759     -80514.936      4821.7907     -75693.146      549.03474    
       900   1518.3655     -80634.998      4883.5099     -75751.488      493.10505    
Loop time of 0.0988857 on 1 procs for 20 steps with 1080 atoms

timestep 0.258268
run 20 post no pre no
   Step          Temp          PotEng         KinEng         TotEng         Press     
       900   1518.3655     -80634.998      4883.5099     -75751.488      493.10505    
       920   1501.4398     -80643.271      4829.0718     -75814.199      60.012603    
Loop time of 0.101746 on 1 procs for 20 steps with 1080 atoms

timestep 0.262552
run 20 post no pre no
   Step          Temp          PotEng         KinEng         TotEng         Press     
       920   1501.4398     -80643.271      4829.0718     -75814.199      60.012603    
       940   1478.4655     -80609.773      4755.1798     -75854.593      663.73893    
Loop time of 0.107013 on 1 procs for 20 steps with 1080 atoms

timestep 0.266046
run 20 post no pre no
   Step          Temp          PotEng         KinEng         TotEng         Press     
       940   1478.4655     -80609.773      4755.1798     -75854.593      663.73893    
       960   1458.2241     -80560.823      4690.0774     -75870.745      120.96492    
Loop time of 0.101894 on 1 procs for 20 steps with 1080 atoms

timestep 0.258750
run 20 post no pre no
   Step          Temp          PotEng         KinEng         TotEng         Press     
       960   1458.2241     -80560.823      4690.0774     -75870.745      120.96492    
       980   1527.5898     -80759.008      4913.178      -75845.83       264.68169    
Loop time of 0.0962287 on 1 procs for 20 steps with 1080 atoms

timestep 0.264030
run 20 post no pre no
   Step          Temp          PotEng         KinEng         TotEng         Press     
       980   1527.5898     -80759.008      4913.178      -75845.83       264.68169    
      1000   1452.6573     -80571.74       4672.1729     -75899.567      276.98871    
Loop time of 0.0958402 on 1 procs for 20 steps with 1080 atoms

timestep 0.259320
run 20 post no pre no
   Step          Temp          PotEng         KinEng         TotEng         Press     
      1000   1452.6573     -80571.74       4672.1729     -75899.567      276.98871    
      1020   1504.465      -80751.403      4838.8018     -75912.601      417.79414    
Loop time of 0.0981065 on 1 procs for 20 steps with 1080 atoms

timestep 0.267792
run 20 post no pre no
   Step          Temp          PotEng         KinEng         TotEng         Press     
      1020   1504.465      -80751.403      4838.8018     -75912.601      417.79414    
      1040   1440.9292     -80575.041      4634.452      -75940.589      139.67577    
Loop time of 0.0981538 on 1 procs for 20 steps with 1080 atoms

timestep 0.256005
run 20 post no pre no
   Step          Temp          PotEng         KinEng         TotEng         Press     
      1040   1440.9292     -80575.041      4634.452      -75940.589      139.67577    
      1060   1503.5102     -80745.639      4835.7309     -75909.909      267.87586    
Loop time of 0.109223 on 1 procs for 20 steps with 1080 atoms

timestep 0.259558
run 20 post no pre no
   Step          Temp          PotEng         KinEng         TotEng         Press     
      1060   1503.5102     -80745.639      4835.7309     -75909.909      267.87586    
      1080   1459.3039     -80611.595      4693.5504     -75918.044      323.22345    
Loop time of 0.0959363 on 1 procs for 20 steps with 1080 atoms

timestep 0.262115
run 20 post no pre no
   Step          Temp          PotEng         KinEng         TotEng         Press     
      1080   1459.3039     -80611.595      4693.5504     -75918.044      323.22345    
      1100   1513.3697     -80713.775      4867.4419     -75846.333      458.25953    
Loop time of 0.0891297 on 1 procs for 20 steps with 1080 atoms

timestep 0.264106
run 20 post no pre no
   Step          Temp          PotEng         KinEng         TotEng         Press     
      1100   1513.3697     -80713.775      4867.4419     -75846.333      458.25953    
      1120   1490.4756     -80688.298      4793.8078     -75894.491      247.24899    
Loop time of 0.0907189 on 1 procs for 20 steps with 1080 atoms

timestep 0.256931
run 20 post no pre no
   Step          Temp          PotEng         KinEng         TotEng         Press     
      1120   1490.4756     -80688.298      4793.8078     -75894.491      247.24899    
      1140   1470.3275     -80629.919      4729.0057     -75900.913      75.570068    
Loop time of 0.0887279 on 1 procs for 20 steps with 1080 atoms

timestep 0.264894
run 20 post no pre no
   Step          Temp          PotEng         KinEng         TotEng         Press     
      1140   1470.3275     -80629.919      4729.0057     -75900.913      75.570068    
      1160   1483.3962     -80687.025      4771.0384     -75915.987      387.27715    
Loop time of 0.0955668 on 1 procs for 20 steps with 1080 atoms

timestep 0.265604
run 20 post no pre no
   Step          Temp          PotEng         KinEng         TotEng         Press     
      1160   1483.3962     -80687.025      4771.0384     -75915.987      387.27715    
      1180   1518.2446     -80697.892      4883.121      -75814.771      280.8991     
Loop time of 0.100973 on 1 procs for 20 steps with 1080 atoms

timestep 0.268810
run 20 post no pre no
   Step          Temp          PotEng         KinEng         TotEng         Press     
      1180   1518.2446     -80697.892      4883.121      -75814.771      280.8991     
      1200   1487.9123     -80645.578      4785.5633     -75860.015      466.93534    
Loop time of 0.0926283 on 1 procs for 20 steps with 1080 atoms

timestep 0.256263
run 20 post no pre no
   Step          Temp          PotEng         KinEng         TotEng         Press     
      1200   1487.9123     -80645.578      4785.5633     -75860.015      466.93534    
      1220   1488.0143     -80726.576      4785.8915     -75940.685      315.61265    
Loop time of 0.0934203 on 1 procs for 20 steps with 1080 atoms

timestep 0.269553
run 20 post no pre no
   Step          Temp          PotEng         KinEng         TotEng         Press     
      1220   1488.0143     -80726.576      4785.8915     -75940.685      315.61265    
      1240   1479.6745     -80736.175      4759.0682     -75977.107      328.26523    
Loop time of 0.0941269 on 1 procs for 20 steps with 1080 atoms

timestep 0.270464
run 20 post no pre no
   Step          Temp          PotEng         KinEng         TotEng         Press     
      1240   1479.6745     -80736.175      4759.0682     -75977.107      328.26523    
      1260   1488.6308     -80684.82       4787.8743     -75896.946      101.89485    
Loop time of 0.100005 on 1 procs for 20 steps with 1080 atoms

timestep 0.269412
run 20 post no pre no
   Step          Temp          PotEng         KinEng         TotEng         Press     
      1260   1488.6308     -80684.82       4787.8743     -75896.946      101.89485    
      1280   1494.4455     -80722.918      4806.5762     -75916.342     -71.16097     
Loop time of 0.0926421 on 1 procs for 20 steps with 1080 atoms

timestep 0.265581
run 20 post no pre no
   Step          Temp          PotEng         KinEng         TotEng         Press     
      1280   1494.4455     -80722.918      4806.5762     -75916.342     -71.16097     
      1300   1490.9063     -80755.121      4795.1932     -75959.928      494.85931    
Loop time of 0.0896024 on 1 procs for 20 steps with 1080 atoms

timestep 0.264804
run 20 post no pre no
   Step          Temp          PotEng         KinEng         TotEng         Press     
      1300   1490.9063     -80755.121      4795.1932     -75959.928      494.85931    
      1320   1480.4563     -80705.981      4761.5829     -75944.398      379.35399    
Loop time of 0.0920717 on 1 procs for 20 steps with 1080 atoms

timestep 0.263166
run 20 post no pre no
   Step          Temp          PotEng         KinEng         TotEng         Press     
      1320   1480.4563     -80705.981      4761.5829     -75944.398      379.35399    
      1340   1449.3007     -80616.754      4661.3771     -75955.377      252.78201    
Loop time of 0.0976696 on 1 procs for 20 steps with 1080 atoms

timestep 0.270641
run 20 post no pre no
   Step          Temp          PotEng         KinEng         TotEng         Press     
      1340   1449.3007     -80616.754      4661.3771     -75955.377      252.78201    
      1360   1466.0062     -80711.058      4715.1069     -75995.952      170.02605    
Loop time of 0.0921531 on 1 procs for 20 steps with 1080 atoms

timestep 0.258074
run 20 post no pre no
   Step          Temp          PotEng         KinEng         TotEng         Press     
      1360   1466.0062     -80711.058      4715.1069     -75995.952      170.02605    
      1380   1463.4392     -80697.569      4706.8508     -75990.718      682.37256    
Loop time of 0.103168 on 1 procs for 20 steps with 1080 atoms

timestep 0.257812
run 20 post no pre no
   Step          Temp          PotEng         KinEng         TotEng         Press     
      1380   1463.4392     -80697.569      4706.8508     -75990.718      682.37256    
      1400   1476.0886     -80772.453      4747.5349     -76024.918      246.71662    
Loop time of 0.0946718 on 1 procs for 20 steps with 1080 atoms

timestep 0.265546
run 20 post no pre no
   Step          Temp          PotEng         KinEng         TotEng         Press     
      1400   1476.0886     -80772.453      4747.5349     -76024.918      246.71662    
      1420   1483.7626     -80752.848      4772.2169     -75980.632      328.96419    
Loop time of 0.0947016 on 1 procs for 20 steps with 1080 atoms

timestep 0.268557
run 20 post no pre no
   Step          Temp          PotEng         KinEng         TotEng         Press     
      1420   1483.7626     -80752.848      4772.2169     -75980.632      328.96419    
      1440   1492.2661     -80722.07       4799.5666     -75922.503      20.719727    
Loop time of 0.0960719 on 1 procs for 20 steps with 1080 atoms

timestep 0.268611
run 20 post no pre no
   Step          Temp          PotEng         KinEng         TotEng         Press     
      1440   1492.2661     -80722.07       4799.5666     -75922.503      20.719727    
      1460   1491.5633     -80708.851      4797.306      -75911.545      565.1127     
Loop time of 0.10959 on 1 procs for 20 steps with 1080 atoms

timestep 0.263524
run 20 post no pre no
   Step          Temp          PotEng         KinEng         TotEng         Press     
      1460   1491.5633     -80708.851      4797.306      -75911.545      565.1127     
      1480   1501.3728     -80777.027      4828.8563     -75948.17       288.84041    
Loop time of 0.097498 on 1 procs for 20 steps with 1080 atoms

timestep 0.267152
run 20 post no pre no
   Step          Temp          PotEng         KinEng         TotEng         Press     
      1480   1501.3728     -80777.027      4828.8563     -75948.17       288.84041    
      1500   1499.8668     -80681.11       4824.0126     -75857.097      391.68956    
Loop time of 0.0959422 on 1 procs for 20 steps with 1080 atoms

timestep 0.265817
run 20 post no pre no
   Step          Temp          PotEng         KinEng         TotEng         Press     
      1500   1499.8668     -80681.11       4824.0126     -75857.097      391.68956    
      1520   1483.9119     -80633.721      4772.6971     -75861.024      169.36201    
Loop time of 0.0904871 on 1 procs for 20 steps with 1080 atoms

timestep 0.268380
run 20 post no pre no
   Step          Temp          PotEng         KinEng         TotEng         Press     
      1520   1483.9119     -80633.721      4772.6971     -75861.024      169.36201    
      1540   1491.7495     -80691.874      4797.9049     -75893.969      330.23746    
Loop time of 0.0946996 on 1 procs for 20 steps with 1080 atoms

timestep 0.273743
run 20 post no pre no
   Step          Temp          PotEng         KinEng         TotEng         Press     
      1540   1491.7495     -80691.874      4797.9049     -75893.969      330.23746    
      1560   1508.5146     -80695.696      4851.8267     -75843.87       440.35405    
Loop time of 0.0945274 on 1 procs for 20 steps with 1080 atoms

timestep 0.268434
run 20 post no pre no
   Step          Temp          PotEng         KinEng         TotEng         Press     
      1560   1508.5146     -80695.696      4851.8267     -75843.87       440.35405    
      1580   1479.8328     -80653.247      4759.5773     -75893.67       178.81193    
Loop time of 0.0972515 on 1 procs for 20 steps with 1080 atoms

timestep 0.254522
run 20 post no pre no
   Step          Temp          PotEng         KinEng         TotEng         Press     
      1580   1479.8328     -80653.247      4759.5773     -75893.67       178.81193    
      1600   1502.1372     -80763.306      4831.3149     -75931.991      565.13752    
Loop time of 0.0987201 on 1 procs for 20 steps with 1080 atoms

timestep 0.263887
run 20 post no pre no
   Step          Temp          PotEng         KinEng         TotEng         Press     
      1600   1502.1372     -80763.306      4831.3149     -75931.991      565.13752    
      1620   1461.8362     -80644.464      4701.6951     -75942.769      180.52998    
Loop time of 0.0956115 on 1 procs for 20 steps with 1080 atoms

timestep 0.262883
run 20 post no pre no
   Step          Temp          PotEng         KinEng         TotEng         Press     
      1620   1461.8362     -80644.464      4701.6951     -75942.769      180.52998    
      1640   1522.4979     -80829.656      4896.8011     -75932.855      444.63929    
Loop time of 0.100574 on 1 procs for 20 steps with 1080 atoms

timestep 0.269722
run 20 post no pre no
   Step          Temp          PotEng         KinEng         TotEng         Press     
      1640   1522.4979     -80829.656      4896.8011     -75932.855      444.63929    
      1660   1421.8766     -80576.15       4573.1733     -76002.977     -124.44111    
Loop time of 0.106854 on 1 procs for 20 steps with 1080 atoms

timestep 0.268365
run 20 post no pre no
   Step          Temp          PotEng         KinEng         TotEng         Press     
      1660   1421.8766     -80576.15       4573.1733     -76002.977     -124.44111    
      1680   1482.8985     -80744.307      4769.4375     -75974.869      467.61413    
Loop time of 0.104527 on 1 procs for 20 steps with 1080 atoms

timestep 0.268598
run 20 post no pre no
   Step          Temp          PotEng         KinEng         TotEng         Press     
      1680   1482.8985     -80744.307      4769.4375     -75974.869      467.61413    
      1700   1477.3596     -80684.059      4751.6228     -75932.436      366.63987    
Loop time of 0.098864 on 1 procs for 20 steps with 1080 atoms

timestep 0.264564
run 20 post no pre no
   Step          Temp          PotEng         KinEng         TotEng         Press     
      1700   1477.3596     -80684.059      4751.6228     -75932.436      366.63987    
      1720   1458.9937     -80636.142      4692.5528     -75943.59       389.43639    
Loop time of 0.0989541 on 1 procs for 20 steps with 1080 atoms

timestep 0.260645
run 20 post no pre no
   Step          Temp          PotEng         KinEng         TotEng         Press     
      1720   1458.9937     -80636.142      4692.5528     -75943.59       389.43639    
      1740   1463.656      -80666.997      4707.548      -75959.449      158.08022    
Loop time of 0.105789 on 1 procs for 20 steps with 1080 atoms

timestep 0.264316
run 20 post no pre no
   Step          Temp          PotEng         KinEng         TotEng         Press     
      1740   1463.656      -80666.997      4707.548      -75959.449      158.08022    
      1760   1535.9723     -80792.606      4940.1386     -75852.467      624.94241    
Loop time of 0.102373 on 1 procs for 20 steps with 1080 atoms

timestep 0.273937
run 20 post no pre no
   Step          Temp          PotEng         KinEng         TotEng         Press     
      1760   1535.9723     -80792.606      4940.1386     -75852.467      624.94241    
      1780   1485.8094     -80518.31       4778.7998     -75739.511      183.50153    
Loop time of 0.0994835 on 1 procs for 20 steps with 1080 atoms

timestep 0.266259
run 20 post no pre no
   Step          Temp          PotEng         KinEng         TotEng         Press     
      1780   1485.8094     -80518.31       4778.7998     -75739.511      183.50153    
      1800   1520.7865     -80724.95       4891.2965     -75833.654      199.52455    
Loop time of 0.100664 on 1 procs for 20 steps with 1080 atoms

timestep 0.268289
run 20 post no pre no
   Step          Temp          PotEng         KinEng         TotEng         Press     
      1800   1520.7865     -80724.95       4891.2965     -75833.654      199.52455    
      1820   1522.9531     -80731.08       4898.2651     -75832.815      304.64445    
Loop time of 0.102191 on 1 procs for 20 steps with 1080 atoms

timestep 0.271345
run 20 post no pre no
   Step          Temp          PotEng         KinEng         TotEng         Press     
      1820   1522.9531     -80731.08       4898.2651     -75832.815      304.64445    
      1840   1515.5676     -80721.942      4874.5109     -75847.431      603.89796    
Loop time of 0.100867 on 1 procs for 20 steps with 1080 atoms

timestep 0.272361
run 20 post no pre no
   Step          Temp          PotEng         KinEng         TotEng         Press     
      1840   1515.5676     -80721.942      4874.5109     -75847.431      603.89796    
      1860   1471.767      -80673.477      4733.6353     -75939.842      68.334967    
Loop time of 0.0985823 on 1 procs for 20 steps with 1080 atoms

timestep 0.269353
run 20 post no pre no
   Step          Temp          PotEng         KinEng         TotEng         Press     
      1860   1471.767      -80673.477      4733.6353     -75939.842      68.334967    
      1880   1513.563      -80785.716      4868.0638     -75917.652      170.87102    
Loop time of 0.111844 on 1 procs for 20 steps with 1080 atoms

timestep 0.269446
run 20 post no pre no
   Step          Temp          PotEng         KinEng         TotEng         Press     
      1880   1513.563      -80785.716      4868.0638     -75917.652      170.87102    
      1900   1471.7031     -80606.58       4733.43       -75873.15       251.53177    
Loop time of 0.10227 on 1 procs for 20 steps with 1080 atoms

timestep 0.267590
run 20 post no pre no
   Step          Temp          PotEng         KinEng         TotEng         Press     
      1900   1471.7031     -80606.58       4733.43       -75873.15       251.53177    
      1920   1506.5088     -80625.951      4845.3753     -75780.576      670.892      
Loop time of 0.0963256 on 1 procs for 20 steps with 1080 atoms

timestep 0.258853
run 20 post no pre no
   Step          Temp          PotEng         KinEng         TotEng         Press     
      1920   1506.5088     -80625.951      4845.3753     -75780.576      670.892      
      1940   1513.2288     -80568.657      4866.9888     -75701.668     -153.3736     
Loop time of 0.101366 on 1 procs for 20 steps with 1080 atoms

timestep 0.262880
run 20 post no pre no
   Step          Temp          PotEng         KinEng         TotEng         Press     
      1940   1513.2288     -80568.657      4866.9888     -75701.668     -153.3736     
      1960   1533.8804     -80625.496      4933.4104     -75692.086      343.80055    
Loop time of 0.097952 on 1 procs for 20 steps with 1080 atoms

timestep 0.260991
run 20 post no pre no
   Step          Temp          PotEng         KinEng         TotEng         Press     
      1960   1533.8804     -80625.496      4933.4104     -75692.086      343.80055    
      1980   1538.9243     -80668.919      4949.6329     -75719.286      450.04373    
Loop time of 0.0966331 on 1 procs for 20 steps with 1080 atoms

timestep 0.268070
run 20 post no pre no
   Step          Temp          PotEng         KinEng         TotEng         Press     
      1980   1538.9243     -80668.919      4949.6329     -75719.286      450.04373    
      2000   1560.5564     -80652.082      5019.2081     -75632.874      695.42624    
Loop time of 0.0925235 on 1 procs for 20 steps with 1080 atoms

unfix q
fix q all qeq/reaxff 1 0.0 10.0 0.0001 reaxff maxiter 200
run 0 post no pre no
   Step          Temp          PotEng         KinEng         TotEng         Press     
      2000   1560.5564     -80652.082      5019.2081     -75632.874      695.42624    
Loop time of 9.65e-07 on 1 procs for 0 steps with 1080 atoms

unfix q
fix q all qeq/reaxff 1 0.0 10.0 1e-06 reaxff maxiter 200
run 0 post no pre no
   Step          Temp          PotEng         KinEng         TotEng         Press     
      2000   1560.5564     -80652.082      5019.2081     -75632.874      695.42624    
Loop time of 1.068e-06 on 1 procs for 0 steps with 1080 atoms

unfix q
fix q all qeq/reaxff 1 0.0 10.0 0.0001 reaxff maxiter 200
run 0 post no pre no
   Step          Temp          PotEng         KinEng         TotEng         Press     
      2000   1560.5564     -80652.082      5019.2081     -75632.874      695.42624    
Loop time of 8.28e-07 on 1 procs for 0 steps with 1080 atoms

unfix q
fix q all qeq/reaxff 1 0.0 10.0 0.0005 reaxff maxiter 200
timestep 0.262883
run 20 post no pre no
   Step          Temp          PotEng         KinEng         TotEng         Press     
      2000   1560.5564     -80652.082      5019.2081     -75632.874      695.42624    
      2020   1548.4033     -80619.017      4980.1203     -75638.897     -152.46672    
Loop time of 0.1042 on 1 procs for 20 steps with 1080 atoms

timestep 0.257114
run 20 post no pre no
   Step          Temp          PotEng         KinEng         TotEng         Press     
      2020   1548.4033     -80619.017      4980.1203     -75638.897     -152.46672    
      2040   1552.6464     -80725.889      4993.7673     -75732.121      547.65826    
Loop time of 0.0971281 on 1 procs for 20 steps with 1080 atoms

timestep 0.262583
run 20 post no pre no
   Step          Temp          PotEng         KinEng         TotEng         Press     
      2040   1552.6464     -80725.889      4993.7673     -75732.121      547.65826    
      2060   1532.3852     -80639.979      4928.6016     -75711.377      566.67553    
Loop time of 0.0966172 on 1 procs for 20 steps with 1080 atoms

timestep 0.257721
run 20 post no pre no
   Step          Temp          PotEng         KinEng         TotEng         Press     
      2060   1532.3852     -80639.979      4928.6016     -75711.377      566.67553    
      2080   1548.5863     -80709.099      4980.7089     -75728.39       290.6451     
Loop time of 0.0990617 on 1 procs for 20 steps with 1080 atoms

timestep 0.268081
run 20 post no pre no
   Step          Temp          PotEng         KinEng         TotEng         Press     
      2080   1548.5863     -80709.099      4980.7089     -75728.39       290.6451     
      2100   1512.776      -80678.02       4865.5323     -75812.488     -7.7637078    
Loop time of 0.0960971 on 1 procs for 20 steps with 1080 atoms

timestep 0.266206
run 20 post no pre no
   Step          Temp          PotEng         KinEng         TotEng         Press     
      2100   1512.776      -80678.02       4865.5323     -75812.488     -7.7637078    
      2120   1518.8639     -80759.067      4885.1129     -75873.954      729.10139    
Loop time of 0.0935203 on 1 procs for 20 steps with 1080 atoms

timestep 0.259273
run 20 post no pre no
   Step          Temp          PotEng         KinEng         TotEng         Press     
      2120   1518.8639     -80759.067      4885.1129     -75873.954      729.10139    
      2140   1518.9582     -80739.026      4885.4163     -75853.609      402.13516    
Loop time of 0.0928708 on 1 procs for 20 steps with 1080 atoms

timestep 0.266647
run 20 post no pre no
   Step          Temp          PotEng         KinEng         TotEng         Press     
      2140   1518.9582     -80739.026      4885.4163     -75853.609      402.13516    
      2160   1462.5236     -80641.897      4703.9061     -75937.991      349.14658    
Loop time of 0.0903635 on 1 procs for 20 steps with 1080 atoms

timestep 0.269648
run 20 post no pre no
   Step          Temp          PotEng         KinEng         TotEng         Press     
      2160   1462.5236     -80641.897      4703.9061     -75937.991      349.14658    
      2180   1512.7427     -80752.697      4865.4253     -75887.271      112.20384    
Loop time of 0.104096 on 1 procs for 20 steps with 1080 atoms

timestep 0.271000
run 20 post no pre no
   Step          Temp          PotEng         KinEng         TotEng         Press     
      2180   1512.7427     -80752.697      4865.4253     -75887.271      112.20384    
      2200   1486.6645     -80691.431      4781.5502     -75909.881      755.59427    
Loop time of 0.0982231 on 1 procs for 20 steps with 1080 atoms

timestep 0.261716
run 20 post no pre no
   Step          Temp          PotEng         KinEng         TotEng         Press     
      2200   1486.6645     -80691.431      4781.5502     -75909.881      755.59427    
      2220   1492.5144     -80672.629      4800.3651     -75872.264      246.41169    
Loop time of 0.104903 on 1 procs for 20 steps with 1080 atoms

timestep 0.259537
run 20 post no pre no
   Step          Temp          PotEng         KinEng         TotEng         Press     
      2220   1492.5144     -80672.629      4800.3651     -75872.264      246.41169    
      2240   1495.4502     -80660.968      4809.8077     -75851.161      369.1718     
Loop time of 0.100846 on 1 procs for 20 steps with 1080 atoms

timestep 0.256397
run 20 post no pre no
   Step          Temp          PotEng         KinEng         TotEng         Press     
      2240   1495.4502     -80660.968      4809.8077     -75851.161      369.1718     
      2260   1487.6447     -80746.948      4784.7027     -75962.246      203.4516     
Loop time of 0.100397 on 1 procs for 20 steps with 1080 atoms

timestep 0.266399
run 20 post no pre no
   Step          Temp          PotEng         KinEng         TotEng         Press     
      2260   1487.6447     -80746.948      4784.7027     -75962.246      203.4516     
      2280   1461.5288     -80657.036      4700.7063     -75956.33       568.38139    
Loop time of 0.100749 on 1 procs for 20 steps with 1080 atoms

timestep 0.263868
run 20 post no pre no
   Step          Temp          PotEng         KinEng         TotEng         Press     
      2280   1461.5288     -80657.036      4700.7063     -75956.33       568.38139    
      2300   1477.2356     -80699.169      4751.224      -75947.945      345.46019    
Loop time of 0.0975045 on 1 procs for 20 steps with 1080 atoms

timestep 0.271199
run 20 post no pre no
   Step          Temp          PotEng         KinEng         TotEng         Press     
      2300   1477.2356     -80699.169      4751.224      -75947.945      345.46019    
      2320   1479.4397     -80755.325      4758.3131     -75997.012      237.9602     
Loop time of 0.109512 on 1 procs for 20 steps with 1080 atoms

timestep 0.268801
run 20 post no pre no
   Step          Temp          PotEng         KinEng         TotEng         Press     
      2320   1479.4397     -80755.325      4758.3131     -75997.012      237.9602     
      2340   1445.1042     -80721.196      4647.88       -76073.316      340.56979    
Loop time of 0.095185 on 1 procs for 20 steps with 1080 atoms

timestep 0.263015
run 20 post no pre no
   Step          Temp          PotEng         KinEng         TotEng         Press     
      2340   1445.1042     -80721.196      4647.88       -76073.316      340.56979    
      2360   1424.2264     -80705.124      4580.731      -76124.393      218.78852    
Loop time of 0.0949486 on 1 procs for 20 steps with 1080 atoms

timestep 0.272880
run 20 post no pre no
   Step          Temp          PotEng         KinEng         TotEng         Press     
      2360   1424.2264     -80705.124      4580.731      -76124.393      218.78852    
      2380   1441.0266     -80788.628      4634.7652     -76153.863      512.11419    
Loop time of 0.0945097 on 1 procs for 20 steps with 1080 atoms

timestep 0.266081
run 20 post no pre no
   Step          Temp          PotEng         KinEng         TotEng         Press     
      2380   1441.0266     -80788.628      4634.7652     -76153.863      512.11419    
      2400   1423.1869     -80769.722      4577.3876     -76192.335      154.01259    
Loop time of 0.0912444 on 1 procs for 20 steps with 1080 atoms

timestep 0.273167
run 20 post no pre no
   Step          Temp          PotEng         KinEng         TotEng         Press     
      2400   1423.1869     -80769.722      4577.3876     -76192.335      154.01259    
      2420   1423.4258     -80767.162      4578.1558     -76189.006      607.95204    
Loop time of 0.0961395 on 1 procs for 20 steps with 1080 atoms

timestep 0.272879
run 20 post no pre no
   Step          Temp          PotEng         KinEng         TotEng         Press     
      2420   1423.4258     -80767.162      4578.1558     -76189.006      607.95204    
      2440   1454.907      -80752.365      4679.4088     -76072.956      348.68026    
Loop time of 0.0991496 on 1 procs for 20 steps with 1080 atoms

timestep 0.265861
run 20 post no pre no
   Step          Temp          PotEng         KinEng         TotEng         Press     
      2440   1454.907      -80752.365      4679.4088     -76072.956      348.68026    
      2460   1472.2961     -80671.017      4735.3372     -75935.68       140.10843    
Loop time of 0.0952961 on 1 procs for 20 steps with 1080 atoms

timestep 0.271092
run 20 post no pre no
   Step          Temp          PotEng         KinEng         TotEng         Press     
      2460   1472.2961     -80671.017      4735.3372     -75935.68       140.10843    
      2480   1455.1493     -80584.55       4680.188      -75904.362      456.87294    
Loop time of 0.0951388 on 1 procs for 20 steps with 1080 atoms

timestep 0.259069
run 20 post no pre no
   Step          Temp          PotEng         KinEng         TotEng         Press     
      2480   1455.1493     -80584.55       4680.188      -75904.362      456.87294    
      2500   1466.7213     -80616.778      4717.4071     -75899.371      642.39788    
Loop time of 0.0970517 on 1 procs for 20 steps with 1080 atoms

timestep 0.266061
run 20 post no pre no
   Step          Temp          PotEng         KinEng         TotEng         Press     
      2500   1466.7213     -80616.778      4717.4071     -75899.371      642.39788    
      2520   1489.4959     -80704.707      4790.6568     -75914.051      14.02377     
Loop time of 0.0946372 on 1 procs for 20 steps with 1080 atoms

timestep 0.268492
run 20 post no pre no
   Step          Temp          PotEng         KinEng         TotEng         Press     
      2520   1489.4959     -80704.707      4790.6568     -75914.051      14.02377     
      2540   1460.0302     -80613.974      4695.8863     -75918.088      82.727234    
Loop time of 0.0904267 on 1 procs for 20 steps with 1080 atoms

timestep 0.265789
run 20 post no pre no
   Step          Temp          PotEng         KinEng         TotEng         Press     
      2540   1460.0302     -80613.974      4695.8863     -75918.088      82.727234    
      2560   1510.7999     -80731.279      4859.1767     -75872.102      525.72809    
Loop time of 0.0891409 on 1 procs for 20 steps with 1080 atoms

timestep 0.265665
run 20 post no pre no
   Step          Temp          PotEng         KinEng         TotEng         Press     
      2560   1510.7999     -80731.279      4859.1767     -75872.102      525.72809    
      2580   1491.0438     -80632.434      4795.6352     -75836.799      176.57374    
Loop time of 0.0940225 on 1 procs for 20 steps with 1080 atoms

timestep 0.264590
run 20 post no pre no
   Step          Temp          PotEng         KinEng         TotEng         Press     
      2580   1491.0438     -80632.434      4795.6352     -75836.799      176.57374    
      2600   1482.2089     -80650.385      4767.2197     -75883.165      243.05523    
Loop time of 0.0921147 on 1 procs for 20 steps with 1080 atoms

timestep 0.262764
run 20 post no pre no
   Step          Temp          PotEng         KinEng         TotEng         Press     
      2600   1482.2089     -80650.385      4767.2197     -75883.165      243.05523    
      2620   1482.4745     -80678.053      4768.0738     -75909.979      235.32775    
Loop time of 0.0918854 on 1 procs for 20 steps with 1080 atoms

timestep 0.269830
run 20 post no pre no
   Step          Temp          PotEng         KinEng         TotEng         Press     
      2620   1482.4745     -80678.053      4768.0738     -75909.979      235.32775    
      2640   1454.4143     -80542.396      4677.8239     -75864.572      656.78663    
Loop time of 0.0994205 on 1 procs for 20 steps with 1080 atoms

timestep 0.259916
run 20 post no pre no
   Step          Temp          PotEng         KinEng         TotEng         Press     
      2640   1454.4143     -80542.396      4677.8239     -75864.572      656.78663    
      2660   1516.3302     -80672.83       4876.9638     -75795.867     -0.13201491   
Loop time of 0.095344 on 1 procs for 20 steps with 1080 atoms

timestep 0.274614
run 20 post no pre no
   Step          Temp          PotEng         KinEng         TotEng         Press     
      2660   1516.3302     -80672.83       4876.9638     -75795.867     -0.13201491   
      2680   1516.0376     -80627.179      4876.0227     -75751.157      574.46691    
Loop time of 0.0935706 on 1 procs for 20 steps with 1080 atoms

timestep 0.263323
run 20 post no pre no
   Step          Temp          PotEng         KinEng         TotEng         Press     
      2680   1516.0376     -80627.179      4876.0227     -75751.157      574.46691    
      2700   1515.114      -80582.129      4873.0522     -75709.077      226.78295    
Loop time of 0.0964024 on 1 procs for 20 steps with 1080 atoms

timestep 0.253902
run 20 post no pre no
   Step          Temp          PotEng         KinEng         TotEng         Press     
      2700   1515.114      -80582.129      4873.0522     -75709.077      226.78295    
      2720   1529.1425     -80656.748      4918.1718     -75738.576      507.29878    
Loop time of 0.0935508 on 1 procs for 20 steps with 1080 atoms

timestep 0.262180
run 20 post no pre no
   Step          Temp          PotEng         KinEng         TotEng         Press     
      2720   1529.1425     -80656.748      4918.1718     -75738.576      507.29878    
      2740   1512.956      -80642.921      4866.1114     -75776.809      194.50104    
Loop time of 0.0971599 on 1 procs for 20 steps with 1080 atoms

timestep 0.261216
run 20 post no pre no
   Step          Temp          PotEng         KinEng         TotEng         Press     
      2740   1512.956      -80642.921      4866.1114     -75776.809      194.50104    
      2760   1512.6103     -80708.341      4864.9994     -75843.342      461.2761     
Loop time of 0.0925291 on 1 procs for 20 steps with 1080 atoms

timestep 0.267277
run 20 post no pre no
   Step          Temp          PotEng         KinEng         TotEng         Press     
      2760   1512.6103     -80708.341      4864.9994     -75843.342      461.2761     
      2780   1472.2879     -80669.111      4735.3109     -75933.8        231.95708    
Loop time of 0.0930183 on 1 procs for 20 steps with 1080 atoms

timestep 0.267091
run 20 post no pre no
   Step          Temp          PotEng         KinEng         TotEng         Press     
      2780   1472.2879     -80669.111      4735.3109     -75933.8        231.95708    
      2800   1497.4067     -80668.67       4816.1002     -75852.57       393.78639    
Loop time of 0.0902654 on 1 procs for 20 steps with 1080 atoms

timestep 0.270039
run 20 post no pre no
   Step          Temp          PotEng         KinEng         TotEng         Press     
      2800   1497.4067     -80668.67       4816.1002     -75852.57       393.78639    
      2820   1493.0812     -80673.566      4802.1882     -75871.378      158.71755    
Loop time of 0.0905676 on 1 procs for 20 steps with 1080 atoms

timestep 0.267291
run 20 post no pre no
   Step          Temp          PotEng         KinEng         TotEng         Press     
      2820   1493.0812     -80673.566      4802.1882     -75871.378      158.71755    
      2840   1508.64       -80671.049      4852.2297     -75818.819      429.50301    
Loop time of 0.0981774 on 1 procs for 20 steps with 1080 atoms

timestep 0.263752
run 20 post no pre no
   Step          Temp          PotEng         KinEng         TotEng         Press     
      2840   1508.64       -80671.049      4852.2297     -75818.819      429.50301    
      2860   1477.0734     -80599.74       4750.7024     -75849.038      198.33874    
Loop time of 0.0947931 on 1 procs for 20 steps with 1080 atoms

timestep 0.269236
run 20 post no pre no
   Step          Temp          PotEng         KinEng         TotEng         Press     
      2860   1477.0734     -80599.74       4750.7024     -75849.038      198.33874    
      2880   1527.8903     -80839.898      4914.1443     -75925.754      614.16236    
Loop time of 0.0957761 on 1 procs for 20 steps with 1080 atoms

timestep 0.274155
run 20 post no pre no
   Step          Temp          PotEng         KinEng         TotEng         Press     
      2880   1527.8903     -80839.898      4914.1443     -75925.754      614.16236    
      2900   1459.9626     -80623.315      4695.6692     -75927.646      65.057425    
Loop time of 0.0938748 on 1 procs for 20 steps with 1080 atoms

timestep 0.268060
run 20 post no pre no
   Step          Temp          PotEng         KinEng         TotEng         Press     
      2900   1459.9626     -80623.315      4695.6692     -75927.646      65.057425    
      2920   1526.5157     -80743.585      4909.7233     -75833.862      382.86794    
Loop time of 0.0913064 on 1 procs for 20 steps with 1080 atoms

timestep 0.277048
run 20 post no pre no
   Step          Temp          PotEng         KinEng         TotEng         Press     
      2920   1526.5157     -80743.585      4909.7233     -75833.862      382.86794    
      2940   1529.9543     -80661.436      4920.7829     -75740.653      281.89582    
Loop time of 0.0961671 on 1 procs for 20 steps with 1080 atoms

timestep 0.268061
run 20 post no pre no
   Step          Temp          PotEng         KinEng         TotEng         Press     
      2940   1529.9543     -80661.436      4920.7829     -75740.653      281.89582    
      2960   1539.4269     -80664.218      4951.2495     -75712.968      476.48218    
Loop time of 0.0901461 on 1 procs for 20 steps with 1080 atoms

timestep 0.264816
run 20 post no pre no
   Step          Temp          PotEng         KinEng         TotEng         Press     
      2960   1539.4269     -80664.218      4951.2495     -75712.968      476.48218    
      2980   1510.4295     -80627.995      4857.9854     -75770.01       123.8952     
Loop time of 0.0902268 on 1 procs for 20 steps with 1080 atoms

timestep 0.271273
run 20 post no pre no
   Step          Temp          PotEng         KinEng         TotEng         Press     
      2980   1510.4295     -80627.995      4857.9854     -75770.01       123.8952     
      3000   1521.5025     -80655.92       4893.5994     -75762.32       443.20372    
Loop time of 0.0934008 on 1 procs for 20 steps with 1080 atoms

timestep 0.267560
run 20 post no pre no
   Step          Temp          PotEng         KinEng         TotEng         Press     
      3000   1521.5025     -80655.92       4893.5994     -75762.32       443.20372    
      3020   1521.8137     -80653.867      4894.6002     -75759.267      115.94115    
Loop time of 0.0905328 on 1 procs for 20 steps with 1080 atoms

timestep 0.270279
run 20 post no pre no
   Step          Temp          PotEng         KinEng         TotEng         Press     
      3020   1521.8137     -80653.867      4894.6002     -75759.267      115.94115    
      3040   1523.1086     -80658.184      4898.7652     -75759.418      287.2664     
Loop time of 0.0922297 on 1 procs for 20 steps with 1080 atoms

timestep 0.270185
run 20 post no pre no
   Step          Temp          PotEng         KinEng         TotEng         Press     
      3040   1523.1086     -80658.184      4898.7652     -75759.418      287.2664     
      3060   1503.6438     -80701.692      4836.1605     -75865.531      92.975018    
Loop time of 0.10139 on 1 procs for 20 steps with 1080 atoms

timestep 0.275693
run 20 post no pre no
   Step          Temp          PotEng         KinEng         TotEng         Press     
      3060   1503.6438     -80701.692      4836.1605     -75865.531      92.975018    
      3080   1514.8766     -80696.756      4872.2885     -75824.468      500.08328    
Loop time of 0.0992728 on 1 procs for 20 steps with 1080 atoms

timestep 0.272715
run 20 post no pre no
   Step          Temp          PotEng         KinEng         TotEng         Press     
      3080   1514.8766     -80696.756      4872.2885     -75824.468      500.08328    
      3100   1459.2233     -80608.605      4693.2912     -75915.313      315.56218    
Loop time of 0.0922139 on 1 procs for 20 steps with 1080 atoms

timestep 0.265472
run 20 post no pre no
   Step          Temp          PotEng         KinEng         TotEng         Press     
      3100   1459.2233     -80608.605      4693.2912     -75915.313      315.56218    
      3120   1482.5653     -80712.339      4768.3659     -75943.973      249.73223    
Loop time of 0.0912788 on 1 procs for 20 steps with 1080 atoms

timestep 0.271950
run 20 post no pre no
   Step          Temp          PotEng         KinEng         TotEng         Press     
      3120   1482.5653     -80712.339      4768.3659     -75943.973      249.73223    
      3140   1457.9959     -80620.164      4689.3435     -75930.82       413.48524    
Loop time of 0.0973219 on 1 procs for 20 steps with 1080 atoms

timestep 0.256419
run 20 post no pre no
   Step          Temp          PotEng         KinEng         TotEng         Press     
      3140   1457.9959     -80620.164      4689.3435     -75930.82       413.48524    
      3160   1501.4137     -80714.552      4828.9881     -75885.564      728.15139    
Loop time of 0.094433 on 1 procs for 20 steps with 1080 atoms

timestep 0.259950
run 20 post no pre no
   Step          Temp          PotEng         KinEng         TotEng         Press     
      3160   1501.4137     -80714.552      4828.9881     -75885.564      728.15139    
      3180   1496.5668     -80600.347      4813.3989     -75786.949      126.65626    
Loop time of 0.0896266 on 1 procs for 20 steps with 1080 atoms

timestep 0.265320
run 20 post no pre no
   Step          Temp          PotEng         KinEng         TotEng         Press     
      3180   1496.5668     -80600.347      4813.3989     -75786.949      126.65626    
      3200   1517.4364     -80614.258      4880.5217     -75733.736      493.07036    
Loop time of 0.0909699 on 1 procs for 20 steps with 1080 atoms

timestep 0.262545
run 20 post no pre no
   Step          Temp          PotEng         KinEng         TotEng         Press     
      3200   1517.4364     -80614.258      4880.5217     -75733.736      493.07036    
      3220   1516.9559     -80675.324      4878.9763     -75796.348      95.455185    
Loop time of 0.093169 on 1 procs for 20 steps with 1080 atoms

timestep 0.271764
run 20 post no pre no
   Step          Temp          PotEng         KinEng         TotEng         Press     
      3220   1516.9559     -80675.324      4878.9763     -75796.348      95.455185    
      3240   1525.1054     -80765.161      4905.1875     -75859.973      548.2529     
Loop time of 0.0932902 on 1 procs for 20 steps with 1080 atoms

timestep 0.271715
run 20 post no pre no
   Step          Temp          PotEng         KinEng         TotEng         Press     
      3240   1525.1054     -80765.161      4905.1875     -75859.973      548.2529     
      3260   1508.7231     -80673.703      4852.4972     -75821.206      299.82127    
Loop time of 0.092371 on 1 procs for 20 steps with 1080 atoms

timestep 0.267022
run 20 post no pre no
   Step          Temp          PotEng         KinEng         TotEng         Press     
      3260   1508.7231     -80673.703      4852.4972     -75821.206      299.82127    
      3280   1515.0362     -80770.512      4872.8019     -75897.71       370.92294    
Loop time of 0.0964588 on 1 procs for 20 steps with 1080 atoms

timestep 0.268192
run 20 post no pre no
   Step          Temp          PotEng         KinEng         TotEng         Press     
      3280   1515.0362     -80770.512      4872.8019     -75897.71       370.92294    
      3300   1454.167      -80654.072      4677.0286     -75977.043      327.89883    
Loop time of 0.0980022 on 1 procs for 20 steps with 1080 atoms

timestep 0.261496
run 20 post no pre no
   Step          Temp          PotEng         KinEng         TotEng         Press     
      3300   1454.167      -80654.072      4677.0286     -75977.043      327.89883    
      3320   1468.7119     -80677.57       4723.8092     -75953.761      506.20295    
Loop time of 0.0912305 on 1 procs for 20 steps with 1080 atoms

timestep 0.265888
run 20 post no pre no
   Step          Temp          PotEng         KinEng         TotEng         Press     
      3320   1468.7119     -80677.57       4723.8092     -75953.761      506.20295    
      3340   1491.2226     -80754.606      4796.2105     -75958.396      311.52601    
Loop time of 0.0905027 on 1 procs for 20 steps with 1080 atoms

timestep 0.269697
run 20 post no pre no
   Step          Temp          PotEng         KinEng         TotEng         Press     
      3340   1491.2226     -80754.606      4796.2105     -75958.396      311.52601    
      3360   1470.2593     -80662.212      4728.7862     -75933.426      425.13268    
Loop time of 0.0984516 on 1 procs for 20 steps with 1080 atoms

timestep 0.266965
run 20 post no pre no
   Step          Temp          PotEng         KinEng         TotEng         Press     
      3360   1470.2593     -80662.212      4728.7862     -75933.426      425.13268    
      3380   1501.0509     -80715.609      4827.8211     -75887.788      127.30055    
Loop time of 0.0945308 on 1 procs for 20 steps with 1080 atoms

timestep 0.277252
run 20 post no pre no
   Step          Temp          PotEng         KinEng         TotEng         Press     
      3380   1501.0509     -80715.609      4827.8211     -75887.788      127.30055    
      3400   1537.1851     -80722.189      4944.0391     -75778.15       420.08307    
Loop time of 0.0963426 on 1 procs for 20 steps with 1080 atoms

timestep 0.280120
run 20 post no pre no
   Step          Temp          PotEng         KinEng         TotEng         Press     
      3400   1537.1851     -80722.189      4944.0391     -75778.15       420.08307    
      3420   1511.1966     -80612.142      4860.4527     -75751.689      301.01511    
Loop time of 0.0951661 on 1 procs for 20 steps with 1080 atoms

timestep 0.275743
run 20 post no pre no
   Step          Temp          PotEng         KinEng         TotEng         Press     
      3420   1511.1966     -80612.142      4860.4527     -75751.689      301.01511    
      3440   1520.6567     -80699.79       4890.879      -75808.911      145.94635    
Loop time of 0.0932272 on 1 procs for 20 steps with 1080 atoms

timestep 0.273553
run 20 post no pre no
   Step          Temp          PotEng         KinEng         TotEng         Press     
      3440   1520.6567     -80699.79       4890.879      -75808.911      145.94635    
      3460   1510.8635     -80689.775      4859.3814     -75830.393      313.64765    
Loop time of 0.0948273 on 1 procs for 20 steps with 1080 atoms

timestep 0.277535
run 20 post no pre no
   Step          Temp          PotEng         KinEng         TotEng         Press     
      3460   1510.8635     -80689.775      4859.3814     -75830.393      313.64765    
      3480   1514.9556     -80643.938      4872.5425     -75771.395      391.59185    
Loop time of 0.0920283 on 1 procs for 20 steps with 1080 atoms

timestep 0.274010
run 20 post no pre no
   Step          Temp          PotEng         KinEng         TotEng         Press     
      3480   1514.9556     -80643.938      4872.5425     -75771.395      391.59185    
      3500   1517.0923     -80707.661      4879.4151     -75828.246      159.64678    
Loop time of 0.0987369 on 1 procs for 20 steps with 1080 atoms

timestep 0.276942
run 20 post no pre no
   Step          Temp          PotEng         KinEng         TotEng         Press     
      3500   1517.0923     -80707.661      4879.4151     -75828.246      159.64678    
      3520   1521.1154     -80721.393      4892.3543     -75829.039      172.65638    
Loop time of 0.0956718 on 1 procs for 20 steps with 1080 atoms

timestep 0.277303
run 20 post no pre no
   Step          Temp          PotEng         KinEng         TotEng         Press     
      3520   1521.1154     -80721.393      4892.3543     -75829.039      172.65638    
      3540   1511.8637     -80727.204      4862.5981     -75864.606      505.99215    
Loop time of 0.0931195 on 1 procs for 20 steps with 1080 atoms

timestep 0.275406
run 20 post no pre no
   Step          Temp          PotEng         KinEng         TotEng         Press     
      3540   1511.8637     -80727.204      4862.5981     -75864.606      505.99215    
      3560   1493.7145     -80709.197      4804.2249     -75904.972      296.81741    
Loop time of 0.0948936 on 1 procs for 20 steps with 1080 atoms

timestep 0.274149
run 20 post no pre no
   Step          Temp          PotEng         KinEng         TotEng         Press     
      3560   1493.7145     -80709.197      4804.2249     -75904.972      296.81741    
      3580   1472.3795     -80682.353      4735.6053     -75946.747      160.85443    
Loop time of 0.100004 on 1 procs for 20 steps with 1080 atoms

timestep 0.271251
run 20 post no pre no
   Step          Temp          PotEng         KinEng         TotEng         Press     
      3580   1472.3795     -80682.353      4735.6053     -75946.747      160.85443    
      3600   1460.4857     -80684.351      4697.3516     -75987          414.51456    
Loop time of 0.0906133 on 1 procs for 20 steps with 1080 atoms

timestep 0.263379
run 20 post no pre no
   Step          Temp          PotEng         KinEng         TotEng         Press     
      3600   1460.4857     -80684.351      4697.3516     -75987          414.51456    
      3620   1520.5894     -80827.349      4890.6627     -75936.687      427.19183    
Loop time of 0.092493 on 1 procs for 20 steps with 1080 atoms

timestep 0.278018
run 20 post no pre no
   Step          Temp          PotEng         KinEng         TotEng         Press     
      3620   1520.5894     -80827.349      4890.6627     -75936.687      427.19183    
      3640   1427.1685     -80601.494      4590.1935     -76011.301      443.20922    
Loop time of 0.0943762 on 1 procs for 20 steps with 1080 atoms

timestep 0.271160
run 20 post no pre no
   Step          Temp          PotEng         KinEng         TotEng         Press     
      3640   1427.1685     -80601.494      4590.1935     -76011.301      443.20922    
      3660   1453.569      -80745.382      4675.1052     -76070.277     -42.984311    
Loop time of 0.0923553 on 1 procs for 20 steps with 1080 atoms

timestep 0.269898
run 20 post no pre no
   Step          Temp          PotEng         KinEng         TotEng         Press     
      3660   1453.569      -80745.382      4675.1052     -76070.277     -42.984311    
      3680   1469.4618     -80705.002      4726.2211     -75978.781      651.87313    
Loop time of 0.0931873 on 1 procs for 20 steps with 1080 atoms

timestep 0.272066
run 20 post no pre no
   Step          Temp          PotEng         KinEng         TotEng         Press     
      3680   1469.4618     -80705.002      4726.2211     -75978.781      651.87313    
      3700   1429.0617     -80596.36       4596.2825     -76000.078      15.50747     
Loop time of 0.0965624 on 1 procs for 20 steps with 1080 atoms

timestep 0.272260
run 20 post no pre no
   Step          Temp          PotEng         KinEng         TotEng         Press     
      3700   1429.0617     -80596.36       4596.2825     -76000.078      15.50747     
      3720   1494.679      -80789.341      4807.3273     -75982.014      460.57888    
Loop time of 0.098541 on 1 procs for 20 steps with 1080 atoms

timestep 0.270710
run 20 post no pre no
   Step          Temp          PotEng         KinEng         TotEng         Press     
      3720   1494.679      -80789.341      4807.3273     -75982.014      460.57888    
      3740   1428.6803     -80617.689      4595.056      -76022.633     -34.687764    
Loop time of 0.0955234 on 1 procs for 20 steps with 1080 atoms

timestep 0.262594
run 20 post no pre no
   Step          Temp          PotEng         KinEng         TotEng         Press     
      3740   1428.6803     -80617.689      4595.056      -76022.633     -34.687764    
      3760   1468.9402     -80785.081      4724.5438     -76060.538      813.03739    
Loop time of 0.0912123 on 1 procs for 20 steps with 1080 atoms

timestep 0.273935
run 20 post no pre no
   Step          Temp          PotEng         KinEng         TotEng         Press     
      3760   1468.9402     -80785.081      4724.5438     -76060.538      813.03739    
      3780   1422.7844     -80613.134      4576.0928     -76037.041      43.092022    
Loop time of 0.100437 on 1 procs for 20 steps with 1080 atoms

timestep 0.274471
run 20 post no pre no
   Step          Temp          PotEng         KinEng         TotEng         Press     
      3780   1422.7844     -80613.134      4576.0928     -76037.041      43.092022    
      3800   1499.6594     -80822.13       4823.3456     -75998.784      483.03353    
Loop time of 0.0955259 on 1 procs for 20 steps with 1080 atoms

timestep 0.272234
run 20 post no pre no
   Step          Temp          PotEng         KinEng         TotEng         Press     
      3800   1499.6594     -80822.13       4823.3456     -75998.784      483.03353    
      3820   1441.2718     -80660.954      4635.5539     -76025.4        297.75691    
Loop time of 0.0933861 on 1 procs for 20 steps with 1080 atoms

timestep 0.264057
run 20 post no pre no
   Step          Temp          PotEng         KinEng         TotEng         Press     
      3820   1441.2718     -80660.954      4635.5539     -76025.4        297.75691    
      3840   1482.1461     -80751.179      4767.0177     -75984.162      653.11982    
Loop time of 0.0961636 on 1 procs for 20 steps with 1080 atoms

timestep 0.269396
run 20 post no pre no
   Step          Temp          PotEng         KinEng         TotEng         Press     
      3840   1482.1461     -80751.179      4767.0177     -75984.162      653.11982    
      3860   1500.6371     -80762.492      4826.4901     -75936.001      174.25271    
Loop time of 0.0944375 on 1 procs for 20 steps with 1080 atoms

timestep 0.270998
run 20 post no pre no
   Step          Temp          PotEng         KinEng         TotEng         Press     
      3860   1500.6371     -80762.492      4826.4901     -75936.001      174.25271    
      3880   1494.0678     -80737.981      4805.3612     -75932.62       447.88861    
Loop time of 0.0967106 on 1 procs for 20 steps with 1080 atoms

timestep 0.275036
run 20 post no pre no
   Step          Temp          PotEng         KinEng         TotEng         Press     
      3880   1494.0678     -80737.981      4805.3612     -75932.62       447.88861    
      3900   1489.5964     -80770.879      4790.9799     -75979.899     -6.5730055    
Loop time of 0.0921322 on 1 procs for 20 steps with 1080 atoms

timestep 0.277902
run 20 post no pre no
   Step          Temp          PotEng         KinEng         TotEng         Press     
      3900   1489.5964     -80770.879      4790.9799     -75979.899     -6.5730055    
      3920   1500.5601     -80755.753      4826.2426     -75929.511      711.66389    
Loop time of 0.0992189 on 1 procs for 20 steps with 1080 atoms

timestep 0.269164
run 20 post no pre no
   Step          Temp          PotEng         KinEng         TotEng         Press     
      3920   1500.5601     -80755.753      4826.2426     -75929.511      711.66389    
      3940   1511.6409     -80744.1        4861.8817     -75882.218      265.69088    
Loop time of 0.0968286 on 1 procs for 20 steps with 1080 atoms

timestep 0.267206
run 20 post no pre no
   Step          Temp          PotEng         KinEng         TotEng         Press     
      3940   1511.6409     -80744.1        4861.8817     -75882.218      265.69088    
      3960   1499.8454     -80760.519      4823.9437     -75936.575      336.38945    
Loop time of 0.0923049 on 1 procs for 20 steps with 1080 atoms

timestep 0.273376
run 20 post no pre no
   Step          Temp          PotEng         KinEng         TotEng         Press     
      3960   1499.8454     -80760.519      4823.9437     -75936.575      336.38945    
      3980   1476.449      -80673.883      4748.694      -75925.189      353.85876    
Loop time of 0.0932455 on 1 procs for 20 steps with 1080 atoms

timestep 0.276183
run 20 post no pre no
   Step          Temp          PotEng         KinEng         TotEng         Press     
      3980   1476.449      -80673.883      4748.694      -75925.189      353.85876    
      4000   1496.1201     -80770.497      4811.9621     -75958.535      597.89187    
Loop time of 0.108621 on 1 procs for 20 steps with 1080 atoms

unfix q
fix q all qeq/reaxff 1 0.0 10.0 0.0001 reaxff maxiter 200
run 0 post no pre no
   Step          Temp          PotEng         KinEng         TotEng         Press     
      4000   1496.1201     -80770.497      4811.9621     -75958.535      597.89187    
Loop time of 1.464e-06 on 1 procs for 0 steps with 1080 atoms

unfix q
fix q all qeq/reaxff 1 0.0 10.0 1e-06 reaxff maxiter 200
run 0 post no pre no
   Step          Temp          PotEng         KinEng         TotEng         Press     
      4000   1496.1201     -80770.497      4811.9621     -75958.535      597.89187    
Loop time of 9.93e-07 on 1 procs for 0 steps with 1080 atoms

unfix q
fix q all qeq/reaxff 1 0.0 10.0 0.0001 reaxff maxiter 200
run 0 post no pre no
   Step          Temp          PotEng         KinEng         TotEng         Press     
[...]
run 0 post no pre no
   Step          Temp          PotEng         KinEng         TotEng         Press     
    186000   1535.524      -80587.751      4938.6966     -75649.054      286.68905    
Loop time of 1.022e-06 on 1 procs for 0 steps with 1080 atoms

unfix q
fix q all qeq/reaxff 1 0.0 10.0 1e-06 reaxff maxiter 200
run 0 post no pre no
   Step          Temp          PotEng         KinEng         TotEng         Press     
    186000   1535.524      -80587.751      4938.6966     -75649.054      286.68905    
Loop time of 8.79e-07 on 1 procs for 0 steps with 1080 atoms

unfix q
fix q all qeq/reaxff 1 0.0 10.0 0.0001 reaxff maxiter 200
run 0 post no pre no
   Step          Temp          PotEng         KinEng         TotEng         Press     
    186000   1535.524      -80587.751      4938.6966     -75649.054      286.68905    
Loop time of 8.4e-07 on 1 procs for 0 steps with 1080 atoms

unfix q
fix q all qeq/reaxff 1 0.0 10.0 0.0005 reaxff maxiter 200
timestep 0.269876
run 20 post no pre no
   Step          Temp          PotEng         KinEng         TotEng         Press     
    186000   1535.524      -80587.751      4938.6966     -75649.054      286.68905    
    186020   1527.9594     -80599.092      4914.3668     -75684.725      224.07439    
Loop time of 0.0960371 on 1 procs for 20 steps with 1080 atoms

timestep 0.266806
run 20 post no pre no
   Step          Temp          PotEng         KinEng         TotEng         Press     
    186020   1527.9594     -80599.092      4914.3668     -75684.725      224.07439    
    186040   1545.1813     -80613.036      4969.7575     -75643.279      271.50809    
Loop time of 0.0876599 on 1 procs for 20 steps with 1080 atoms

timestep 0.272852
run 20 post no pre no
   Step          Temp          PotEng         KinEng         TotEng         Press     
    186040   1545.1813     -80613.036      4969.7575     -75643.279      271.50809    
    186060   1566.2274     -80631.743      5037.4479     -75594.295      274.21944    
Loop time of 0.1018 on 1 procs for 20 steps with 1080 atoms

timestep 0.264755
run 20 post no pre no
   Step          Temp          PotEng         KinEng         TotEng         Press     
    186060   1566.2274     -80631.743      5037.4479     -75594.295      274.21944    
    186080   1542.3943     -80574.199      4960.7934     -75613.406      245.3851     
Loop time of 0.0998827 on 1 procs for 20 steps with 1080 atoms

timestep 0.263104
run 20 post no pre no
   Step          Temp          PotEng         KinEng         TotEng         Press     
    186080   1542.3943     -80574.199      4960.7934     -75613.406      245.3851     
    186100   1569.1304     -80718.019      5046.7847     -75671.234      238.09701    
Loop time of 0.0992407 on 1 procs for 20 steps with 1080 atoms

timestep 0.272900
run 20 post no pre no
   Step          Temp          PotEng         KinEng         TotEng         Press     
    186100   1569.1304     -80718.019      5046.7847     -75671.234      238.09701    
    186120   1514.7918     -80620.599      4872.0157     -75748.583      523.52199    
Loop time of 0.106434 on 1 procs for 20 steps with 1080 atoms

timestep 0.268985
run 20 post no pre no
   Step          Temp          PotEng         KinEng         TotEng         Press     
    186120   1514.7918     -80620.599      4872.0157     -75748.583      523.52199    
    186140   1593.258      -80706.368      5124.3862     -75581.982      319.41978    
Loop time of 0.101249 on 1 procs for 20 steps with 1080 atoms

timestep 0.261671
run 20 post no pre no
   Step          Temp          PotEng         KinEng         TotEng         Press     
    186140   1593.258      -80706.368      5124.3862     -75581.982      319.41978    
    186160   1503.8811     -80521.555      4836.9239     -75684.631      63.018162    
Loop time of 0.0931258 on 1 procs for 20 steps with 1080 atoms

timestep 0.266707
run 20 post no pre no
   Step          Temp          PotEng         KinEng         TotEng         Press     
    186160   1503.8811     -80521.555      4836.9239     -75684.631      63.018162    
    186180   1527.4675     -80676.467      4912.7847     -75763.682      411.33992    
Loop time of 0.0923716 on 1 procs for 20 steps with 1080 atoms

timestep 0.268451
run 20 post no pre no
   Step          Temp          PotEng         KinEng         TotEng         Press     
    186180   1527.4675     -80676.467      4912.7847     -75763.682      411.33992    
    186200   1517.9776     -80640.294      4882.2624     -75758.032      375.16888    
Loop time of 0.0940905 on 1 procs for 20 steps with 1080 atoms

timestep 0.263954
run 20 post no pre no
   Step          Temp          PotEng         KinEng         TotEng         Press     
    186200   1517.9776     -80640.294      4882.2624     -75758.032      375.16888    
    186220   1539.1295     -80719.552      4950.2931     -75769.259      237.76307    
Loop time of 0.0969015 on 1 procs for 20 steps with 1080 atoms

timestep 0.264995
run 20 post no pre no
   Step          Temp          PotEng         KinEng         TotEng         Press     
    186220   1539.1295     -80719.552      4950.2931     -75769.259      237.76307    
    186240   1522.9666     -80607.306      4898.3083     -75708.998      97.979428    
Loop time of 0.0920723 on 1 procs for 20 steps with 1080 atoms

timestep 0.275655
run 20 post no pre no
   Step          Temp          PotEng         KinEng         TotEng         Press     
    186240   1522.9666     -80607.306      4898.3083     -75708.998      97.979428    
    186260   1585.5607     -80765.983      5099.6294     -75666.354      542.33081    
Loop time of 0.0934161 on 1 procs for 20 steps with 1080 atoms

timestep 0.273037
run 20 post no pre no
   Step          Temp          PotEng         KinEng         TotEng         Press     
    186260   1585.5607     -80765.983      5099.6294     -75666.354      542.33081    
    186280   1528.3837     -80666.033      4915.7313     -75750.302      135.37772    
Loop time of 0.0937413 on 1 procs for 20 steps with 1080 atoms

timestep 0.275509
run 20 post no pre no
   Step          Temp          PotEng         KinEng         TotEng         Press     
    186280   1528.3837     -80666.033      4915.7313     -75750.302      135.37772    
    186300   1532.5129     -80700.181      4929.0122     -75771.169      99.763941    
Loop time of 0.09266 on 1 procs for 20 steps with 1080 atoms

timestep 0.274220
run 20 post no pre no
   Step          Temp          PotEng         KinEng         TotEng         Press     
    186300   1532.5129     -80700.181      4929.0122     -75771.169      99.763941    
    186320   1544.1147     -80711.247      4966.3269     -75744.92       643.45164    
Loop time of 0.0905545 on 1 procs for 20 steps with 1080 atoms

timestep 0.262800
run 20 post no pre no
   Step          Temp          PotEng         KinEng         TotEng         Press     
    186320   1544.1147     -80711.247      4966.3269     -75744.92       643.45164    
    186340   1542.9034     -80658.768      4962.4311     -75696.336      502.8235     
Loop time of 0.095058 on 1 procs for 20 steps with 1080 atoms

timestep 0.260616
run 20 post no pre no
   Step          Temp          PotEng         KinEng         TotEng         Press     
    186340   1542.9034     -80658.768      4962.4311     -75696.336      502.8235     
    186360   1554.2618     -80709.323      4998.963      -75710.36      -17.09601     
Loop time of 0.101591 on 1 procs for 20 steps with 1080 atoms

timestep 0.270578
run 20 post no pre no
   Step          Temp          PotEng         KinEng         TotEng         Press     
    186360   1554.2618     -80709.323      4998.963      -75710.36      -17.09601     
    186380   1535.9749     -80665.408      4940.1469     -75725.261      661.44119    
Loop time of 0.0956165 on 1 procs for 20 steps with 1080 atoms

timestep 0.253260
run 20 post no pre no
   Step          Temp          PotEng         KinEng         TotEng         Press     
    186380   1535.9749     -80665.408      4940.1469     -75725.261      661.44119    
    186400   1504.737      -80615.096      4839.6766     -75775.419      480.36628    
Loop time of 0.0917859 on 1 procs for 20 steps with 1080 atoms

timestep 0.268444
run 20 post no pre no
   Step          Temp          PotEng         KinEng         TotEng         Press     
    186400   1504.737      -80615.096      4839.6766     -75775.419      480.36628    
    186420   1529.2582     -80723.887      4918.5442     -75805.343      209.20892    
Loop time of 0.10124 on 1 procs for 20 steps with 1080 atoms

timestep 0.268608
run 20 post no pre no
   Step          Temp          PotEng         KinEng         TotEng         Press     
    186420   1529.2582     -80723.887      4918.5442     -75805.343      209.20892    
    186440   1492.3156     -80716.09       4799.7257     -75916.364      302.74969    
Loop time of 0.0932692 on 1 procs for 20 steps with 1080 atoms

timestep 0.270696
run 20 post no pre no
   Step          Temp          PotEng         KinEng         TotEng         Press     
    186440   1492.3156     -80716.09       4799.7257     -75916.364      302.74969    
    186460   1503.1984     -80669.439      4834.7282     -75834.711      280.53771    
Loop time of 0.0910919 on 1 procs for 20 steps with 1080 atoms

timestep 0.271289
run 20 post no pre no
   Step          Temp          PotEng         KinEng         TotEng         Press     
    186460   1503.1984     -80669.439      4834.7282     -75834.711      280.53771    
    186480   1519.6653     -80724.192      4887.6906     -75836.501      693.63337    
Loop time of 0.0915743 on 1 procs for 20 steps with 1080 atoms

timestep 0.262436
run 20 post no pre no
   Step          Temp          PotEng         KinEng         TotEng         Press     
    186480   1519.6653     -80724.192      4887.6906     -75836.501      693.63337    
    186500   1531.8807     -80653.923      4926.9787     -75726.945      228.65777    
Loop time of 0.0917744 on 1 procs for 20 steps with 1080 atoms

timestep 0.274566
run 20 post no pre no
   Step          Temp          PotEng         KinEng         TotEng         Press     
    186500   1531.8807     -80653.923      4926.9787     -75726.945      228.65777    
    186520   1571.6286     -80735.416      5054.8195     -75680.596      179.54416    
Loop time of 0.0963775 on 1 procs for 20 steps with 1080 atoms

timestep 0.274663
run 20 post no pre no
   Step          Temp          PotEng         KinEng         TotEng         Press     
    186520   1571.6286     -80735.416      5054.8195     -75680.596      179.54416    
    186540   1556.7803     -80693.068      5007.0631     -75686.005      691.16042    
Loop time of 0.101845 on 1 procs for 20 steps with 1080 atoms

timestep 0.270012
run 20 post no pre no
   Step          Temp          PotEng         KinEng         TotEng         Press     
    186540   1556.7803     -80693.068      5007.0631     -75686.005      691.16042    
    186560   1538.6439     -80690.274      4948.7311     -75741.543      204.36419    
Loop time of 0.101005 on 1 procs for 20 steps with 1080 atoms

timestep 0.272029
run 20 post no pre no
   Step          Temp          PotEng         KinEng         TotEng         Press     
    186560   1538.6439     -80690.274      4948.7311     -75741.543      204.36419    
    186580   1548.5227     -80707.957      4980.5043     -75727.453      272.78634    
Loop time of 0.0903312 on 1 procs for 20 steps with 1080 atoms

timestep 0.273934
run 20 post no pre no
   Step          Temp          PotEng         KinEng         TotEng         Press     
    186580   1548.5227     -80707.957      4980.5043     -75727.453      272.78634    
    186600   1563.4397     -80651.519      5028.4817     -75623.038      238.81306    
Loop time of 0.0932774 on 1 procs for 20 steps with 1080 atoms

timestep 0.269424
run 20 post no pre no
   Step          Temp          PotEng         KinEng         TotEng         Press     
    186600   1563.4397     -80651.519      5028.4817     -75623.038      238.81306    
    186620   1546.0984     -80648.732      4972.7071     -75676.025      638.92325    
Loop time of 0.0943738 on 1 procs for 20 steps with 1080 atoms

timestep 0.273320
run 20 post no pre no
   Step          Temp          PotEng         KinEng         TotEng         Press     
    186620   1546.0984     -80648.732      4972.7071     -75676.025      638.92325    
    186640   1519.284      -80566.888      4886.4639     -75680.424      102.38523    
Loop time of 0.0977433 on 1 procs for 20 steps with 1080 atoms

timestep 0.269775
run 20 post no pre no
   Step          Temp          PotEng         KinEng         TotEng         Press     
    186640   1519.284      -80566.888      4886.4639     -75680.424      102.38523    
    186660   1549.0444     -80616.149      4982.1824     -75633.967      332.06964    
Loop time of 0.0959165 on 1 procs for 20 steps with 1080 atoms

timestep 0.263751
run 20 post no pre no
   Step          Temp          PotEng         KinEng         TotEng         Press     
    186660   1549.0444     -80616.149      4982.1824     -75633.967      332.06964    
    186680   1530.7375     -80536.54       4923.3019     -75613.238      269.1364     
Loop time of 0.08874 on 1 procs for 20 steps with 1080 atoms

timestep 0.263868
run 20 post no pre no
   Step          Temp          PotEng         KinEng         TotEng         Press     
    186680   1530.7375     -80536.54       4923.3019     -75613.238      269.1364     
    186700   1541.4357     -80649.365      4957.7105     -75691.655      501.0823     
Loop time of 0.0904734 on 1 procs for 20 steps with 1080 atoms

timestep 0.268493
run 20 post no pre no
   Step          Temp          PotEng         KinEng         TotEng         Press     
    186700   1541.4357     -80649.365      4957.7105     -75691.655      501.0823     
    186720   1495.9996     -80451.198      4811.5746     -75639.623     -22.039218    
Loop time of 0.086652 on 1 procs for 20 steps with 1080 atoms

timestep 0.262037
run 20 post no pre no
   Step          Temp          PotEng         KinEng         TotEng         Press     
    186720   1495.9996     -80451.198      4811.5746     -75639.623     -22.039218    
    186740   1548.3467     -80593.818      4979.9383     -75613.88       535.69175    
Loop time of 0.0971363 on 1 procs for 20 steps with 1080 atoms

timestep 0.261460
run 20 post no pre no
   Step          Temp          PotEng         KinEng         TotEng         Press     
    186740   1548.3467     -80593.818      4979.9383     -75613.88       535.69175    
    186760   1480.6975     -80459.9        4762.3586     -75697.541      600.97188    
Loop time of 0.0955217 on 1 procs for 20 steps with 1080 atoms

timestep 0.255992
run 20 post no pre no
   Step          Temp          PotEng         KinEng         TotEng         Press     
    186760   1480.6975     -80459.9        4762.3586     -75697.541      600.97188    
    186780   1517.6651     -80594.393      4881.2571     -75713.135      586.63544    
Loop time of 0.0962909 on 1 procs for 20 steps with 1080 atoms

timestep 0.261469
run 20 post no pre no
   Step          Temp          PotEng         KinEng         TotEng         Press     
    186780   1517.6651     -80594.393      4881.2571     -75713.135      586.63544    
    186800   1484.3602     -80538.052      4774.1388     -75763.913     -56.443037    
Loop time of 0.0969479 on 1 procs for 20 steps with 1080 atoms

timestep 0.269176
run 20 post no pre no
   Step          Temp          PotEng         KinEng         TotEng         Press     
    186800   1484.3602     -80538.052      4774.1388     -75763.913     -56.443037    
    186820   1509.6162     -80573.734      4855.3695     -75718.365      450.0953     
Loop time of 0.0937829 on 1 procs for 20 steps with 1080 atoms

timestep 0.264438
run 20 post no pre no
   Step          Temp          PotEng         KinEng         TotEng         Press     
    186820   1509.6162     -80573.734      4855.3695     -75718.365      450.0953     
    186840   1529.1391     -80623.993      4918.1609     -75705.832      347.82362    
Loop time of 0.0949025 on 1 procs for 20 steps with 1080 atoms

timestep 0.270622
run 20 post no pre no
   Step          Temp          PotEng         KinEng         TotEng         Press     
    186840   1529.1391     -80623.993      4918.1609     -75705.832      347.82362    
    186860   1537.9213     -80662.527      4946.4072     -75716.12       188.21176    
Loop time of 0.0943428 on 1 procs for 20 steps with 1080 atoms

timestep 0.274014
run 20 post no pre no
   Step          Temp          PotEng         KinEng         TotEng         Press     
    186860   1537.9213     -80662.527      4946.4072     -75716.12       188.21176    
    186880   1496.9593     -80581.149      4814.6614     -75766.488      286.76259    
Loop time of 0.0881409 on 1 procs for 20 steps with 1080 atoms

timestep 0.276752
run 20 post no pre no
   Step          Temp          PotEng         KinEng         TotEng         Press     
    186880   1496.9593     -80581.149      4814.6614     -75766.488      286.76259    
    186900   1481.076      -80615.94       4763.5761     -75852.364      493.43537    
Loop time of 0.0924433 on 1 procs for 20 steps with 1080 atoms

timestep 0.270332
run 20 post no pre no
   Step          Temp          PotEng         KinEng         TotEng         Press     
    186900   1481.076      -80615.94       4763.5761     -75852.364      493.43537    
    186920   1505.079      -80643.295      4840.7765     -75802.518      370.78137    
Loop time of 0.0881777 on 1 procs for 20 steps with 1080 atoms

timestep 0.264617
run 20 post no pre no
   Step          Temp          PotEng         KinEng         TotEng         Press     
    186920   1505.079      -80643.295      4840.7765     -75802.518      370.78137    
    186940   1467.6988     -80554.759      4720.551      -75834.208      92.049619    
Loop time of 0.090404 on 1 procs for 20 steps with 1080 atoms

timestep 0.259573
run 20 post no pre no
   Step          Temp          PotEng         KinEng         TotEng         Press     
    186940   1467.6988     -80554.759      4720.551      -75834.208      92.049619    
    186960   1491.6721     -80654.248      4797.6559     -75856.592      659.22422    
Loop time of 0.0909054 on 1 procs for 20 steps with 1080 atoms

timestep 0.264939
run 20 post no pre no
   Step          Temp          PotEng         KinEng         TotEng         Press     
    186960   1491.6721     -80654.248      4797.6559     -75856.592      659.22422    
    186980   1488.924      -80625.285      4788.8175     -75836.468      360.50539    
Loop time of 0.0978877 on 1 procs for 20 steps with 1080 atoms

timestep 0.263625
run 20 post no pre no
   Step          Temp          PotEng         KinEng         TotEng         Press     
    186980   1488.924      -80625.285      4788.8175     -75836.468      360.50539    
    187000   1450.6753     -80580.643      4665.7984     -75914.845      162.79329    
Loop time of 0.0973834 on 1 procs for 20 steps with 1080 atoms

timestep 0.262773
run 20 post no pre no
   Step          Temp          PotEng         KinEng         TotEng         Press     
    187000   1450.6753     -80580.643      4665.7984     -75914.845      162.79329    
    187020   1474.3933     -80617.075      4742.0824     -75874.992      16.205213    
Loop time of 0.089871 on 1 procs for 20 steps with 1080 atoms

timestep 0.268127
run 2 post no pre no
   Step          Temp          PotEng         KinEng         TotEng         Press     
    187020   1474.3933     -80617.075      4742.0824     -75874.992      16.205213    
    187022   1482.2476     -80651.152      4767.3443     -75883.807      1.0719423    
Loop time of 0.00925816 on 1 procs for 2 steps with 1080 atoms

Total wall time: 0:15:04
